Title: ** sch_path: /home/renslow/documents/ece5120/hw07/mag/gilbert_lna_tb.sch
Date: Fri Nov 29 14:55:05  2024
Plotname: Operating Point
Flags: real
No. Variables: 779
No. Points: 1
Variables:
	0	v(net1)	voltage
	1	i(@b.x1.xif_res_0.x0.xsky130_fd_pr__res_xhigh_po_0p69.brbody[i])	current
	2	i(@b.x1.xif_res_0.x0.xsky130_fd_pr__res_xhigh_po_0p69.brend[i])	current
	3	i(@b.x1.xif_res_1.x0.xsky130_fd_pr__res_xhigh_po_0p69.brbody[i])	current
	4	i(@b.x1.xif_res_1.x0.xsky130_fd_pr__res_xhigh_po_0p69.brend[i])	current
	5	i(@b.x1.xlop_resistor_0.xsky130_fd_pr__res_xhigh_po_0p69_p8uvge_0.x0.xsky130_fd_pr__res_xhigh_po_0p69.brbody[i])	current
	6	i(@b.x1.xlop_resistor_0.xsky130_fd_pr__res_xhigh_po_0p69_p8uvge_0.x0.xsky130_fd_pr__res_xhigh_po_0p69.brend[i])	current
	7	i(@b.x1.xlop_resistor_0.xsky130_fd_pr__res_xhigh_po_0p69_z9gmgv_0.x0.xsky130_fd_pr__res_xhigh_po_0p69.brbody[i])	current
	8	i(@b.x1.xlop_resistor_0.xsky130_fd_pr__res_xhigh_po_0p69_z9gmgv_0.x0.xsky130_fd_pr__res_xhigh_po_0p69.brend[i])	current
	9	i(@b.x1.xlop_resistor_1.xsky130_fd_pr__res_xhigh_po_0p69_p8uvge_0.x0.xsky130_fd_pr__res_xhigh_po_0p69.brbody[i])	current
	10	i(@b.x1.xlop_resistor_1.xsky130_fd_pr__res_xhigh_po_0p69_p8uvge_0.x0.xsky130_fd_pr__res_xhigh_po_0p69.brend[i])	current
	11	i(@b.x1.xlop_resistor_1.xsky130_fd_pr__res_xhigh_po_0p69_z9gmgv_0.x0.xsky130_fd_pr__res_xhigh_po_0p69.brbody[i])	current
	12	i(@b.x1.xlop_resistor_1.xsky130_fd_pr__res_xhigh_po_0p69_z9gmgv_0.x0.xsky130_fd_pr__res_xhigh_po_0p69.brend[i])	current
	13	i(@b.x1.xvdd_res_0.xsky130_fd_pr__res_xhigh_po_0p69_lzxzx3_0.x0.xsky130_fd_pr__res_xhigh_po_0p69.brbody[i])	current
	14	i(@b.x1.xvdd_res_0.xsky130_fd_pr__res_xhigh_po_0p69_lzxzx3_0.x0.xsky130_fd_pr__res_xhigh_po_0p69.brend[i])	current
	15	i(@b.x1.xvdd_res_1.xsky130_fd_pr__res_xhigh_po_0p69_lzxzx3_0.x0.xsky130_fd_pr__res_xhigh_po_0p69.brbody[i])	current
	16	i(@b.x1.xvdd_res_1.xsky130_fd_pr__res_xhigh_po_0p69_lzxzx3_0.x0.xsky130_fd_pr__res_xhigh_po_0p69.brend[i])	current
	17	i(@b.x2.xsky130_fd_pr__res_xhigh_po_0p35_bb2zh9_0.x0.xsky130_fd_pr__res_xhigh_po_0p35.brbody[i])	current
	18	i(@b.x2.xsky130_fd_pr__res_xhigh_po_0p35_bb2zh9_0.x0.xsky130_fd_pr__res_xhigh_po_0p35.brend[i])	current
	19	i(@b.x2.xsky130_fd_pr__res_xhigh_po_5p73_7d764l_0.x0.xsky130_fd_pr__res_xhigh_po_5p73.brbody[i])	current
	20	i(@b.x2.xsky130_fd_pr__res_xhigh_po_5p73_7d764l_0.x0.xsky130_fd_pr__res_xhigh_po_5p73.brend[i])	current
	21	i(@b.x2.xsky130_fd_pr__res_xhigh_po_5p73_f3ynpn_0.x0.xsky130_fd_pr__res_xhigh_po_5p73.brbody[i])	current
	22	i(@b.x2.xsky130_fd_pr__res_xhigh_po_5p73_f3ynpn_0.x0.xsky130_fd_pr__res_xhigh_po_5p73.brend[i])	current
	23	i(@b.x2.xsky130_fd_pr__res_xhigh_po_5p73_g7vz5e_0.x0.xsky130_fd_pr__res_xhigh_po_5p73.brbody[i])	current
	24	i(@b.x2.xsky130_fd_pr__res_xhigh_po_5p73_g7vz5e_0.x0.xsky130_fd_pr__res_xhigh_po_5p73.brend[i])	current
	25	i(@c.x1.c0[i])	current
	26	i(@c.x1.c1[i])	current
	27	i(@c.x1.c2[i])	current
	28	i(@c.x1.c3[i])	current
	29	i(@c.x1.c4[i])	current
	30	i(@c.x1.c5[i])	current
	31	i(@c.x1.c6[i])	current
	32	i(@c.x1.c7[i])	current
	33	i(@c.x1.c8[i])	current
	34	i(@c.x1.c9[i])	current
	35	i(@c.x1.c10[i])	current
	36	i(@c.x1.c11[i])	current
	37	i(@c.x1.c12[i])	current
	38	i(@c.x1.c13[i])	current
	39	i(@c.x1.c14[i])	current
	40	i(@c.x1.c15[i])	current
	41	i(@c.x1.c16[i])	current
	42	i(@c.x1.c17[i])	current
	43	i(@c.x1.c18[i])	current
	44	i(@c.x1.c19[i])	current
	45	i(@c.x1.c20[i])	current
	46	i(@c.x1.c21[i])	current
	47	i(@c.x1.c22[i])	current
	48	i(@c.x1.xgilbert_0.c0[i])	current
	49	i(@c.x1.xgilbert_0.c1[i])	current
	50	i(@c.x1.xgilbert_0.xnmos_40_0.c0[i])	current
	51	i(@c.x1.xgilbert_0.xnmos_40_0.c1[i])	current
	52	i(@c.x1.xgilbert_0.xnmos_40_0.c2[i])	current
	53	i(@c.x1.xgilbert_0.xnmos_40_0.c3[i])	current
	54	i(@c.x1.xgilbert_0.xnmos_40_1.c0[i])	current
	55	i(@c.x1.xgilbert_0.xnmos_40_1.c1[i])	current
	56	i(@c.x1.xgilbert_0.xnmos_40_1.c2[i])	current
	57	i(@c.x1.xgilbert_0.xnmos_40_1.c3[i])	current
	58	i(@c.x1.xgilbert_1.c0[i])	current
	59	i(@c.x1.xgilbert_1.c1[i])	current
	60	i(@c.x1.xgilbert_1.xnmos_40_0.c0[i])	current
	61	i(@c.x1.xgilbert_1.xnmos_40_0.c1[i])	current
	62	i(@c.x1.xgilbert_1.xnmos_40_0.c2[i])	current
	63	i(@c.x1.xgilbert_1.xnmos_40_0.c3[i])	current
	64	i(@c.x1.xgilbert_1.xnmos_40_1.c0[i])	current
	65	i(@c.x1.xgilbert_1.xnmos_40_1.c1[i])	current
	66	i(@c.x1.xgilbert_1.xnmos_40_1.c2[i])	current
	67	i(@c.x1.xgilbert_1.xnmos_40_1.c3[i])	current
	68	i(@c.x1.xgilbert_2.c0[i])	current
	69	i(@c.x1.xgilbert_2.c1[i])	current
	70	i(@c.x1.xgilbert_2.xnmos_40_0.c0[i])	current
	71	i(@c.x1.xgilbert_2.xnmos_40_0.c1[i])	current
	72	i(@c.x1.xgilbert_2.xnmos_40_0.c2[i])	current
	73	i(@c.x1.xgilbert_2.xnmos_40_0.c3[i])	current
	74	i(@c.x1.xgilbert_2.xnmos_40_1.c0[i])	current
	75	i(@c.x1.xgilbert_2.xnmos_40_1.c1[i])	current
	76	i(@c.x1.xgilbert_2.xnmos_40_1.c2[i])	current
	77	i(@c.x1.xgilbert_2.xnmos_40_1.c3[i])	current
	78	i(@c.x1.xgilbert_3.c0[i])	current
	79	i(@c.x1.xgilbert_3.c1[i])	current
	80	i(@c.x1.xgilbert_3.xnmos_40_0.c0[i])	current
	81	i(@c.x1.xgilbert_3.xnmos_40_0.c1[i])	current
	82	i(@c.x1.xgilbert_3.xnmos_40_0.c2[i])	current
	83	i(@c.x1.xgilbert_3.xnmos_40_0.c3[i])	current
	84	i(@c.x1.xgilbert_3.xnmos_40_1.c0[i])	current
	85	i(@c.x1.xgilbert_3.xnmos_40_1.c1[i])	current
	86	i(@c.x1.xgilbert_3.xnmos_40_1.c2[i])	current
	87	i(@c.x1.xgilbert_3.xnmos_40_1.c3[i])	current
	88	i(@c.x1.xif_res_0.x0.xsky130_fd_pr__res_xhigh_po_0p69.c1[i])	current
	89	i(@c.x1.xif_res_0.x0.xsky130_fd_pr__res_xhigh_po_0p69.c2[i])	current
	90	i(@c.x1.xif_res_1.x0.xsky130_fd_pr__res_xhigh_po_0p69.c1[i])	current
	91	i(@c.x1.xif_res_1.x0.xsky130_fd_pr__res_xhigh_po_0p69.c2[i])	current
	92	i(@c.x1.xlop_resistor_0.xsky130_fd_pr__res_xhigh_po_0p69_p8uvge_0.x0.xsky130_fd_pr__res_xhigh_po_0p69.c1[i])	current
	93	i(@c.x1.xlop_resistor_0.xsky130_fd_pr__res_xhigh_po_0p69_p8uvge_0.x0.xsky130_fd_pr__res_xhigh_po_0p69.c2[i])	current
	94	i(@c.x1.xlop_resistor_0.xsky130_fd_pr__res_xhigh_po_0p69_z9gmgv_0.x0.xsky130_fd_pr__res_xhigh_po_0p69.c1[i])	current
	95	i(@c.x1.xlop_resistor_0.xsky130_fd_pr__res_xhigh_po_0p69_z9gmgv_0.x0.xsky130_fd_pr__res_xhigh_po_0p69.c2[i])	current
	96	i(@c.x1.xlop_resistor_1.xsky130_fd_pr__res_xhigh_po_0p69_p8uvge_0.x0.xsky130_fd_pr__res_xhigh_po_0p69.c1[i])	current
	97	i(@c.x1.xlop_resistor_1.xsky130_fd_pr__res_xhigh_po_0p69_p8uvge_0.x0.xsky130_fd_pr__res_xhigh_po_0p69.c2[i])	current
	98	i(@c.x1.xlop_resistor_1.xsky130_fd_pr__res_xhigh_po_0p69_z9gmgv_0.x0.xsky130_fd_pr__res_xhigh_po_0p69.c1[i])	current
	99	i(@c.x1.xlop_resistor_1.xsky130_fd_pr__res_xhigh_po_0p69_z9gmgv_0.x0.xsky130_fd_pr__res_xhigh_po_0p69.c2[i])	current
	100	i(@c.x1.xnmos_40_0.c0[i])	current
	101	i(@c.x1.xnmos_40_0.c1[i])	current
	102	i(@c.x1.xnmos_40_0.c2[i])	current
	103	i(@c.x1.xnmos_40_0.c3[i])	current
	104	i(@c.x1.xnmos_40_1.c0[i])	current
	105	i(@c.x1.xnmos_40_1.c1[i])	current
	106	i(@c.x1.xnmos_40_1.c2[i])	current
	107	i(@c.x1.xnmos_40_1.c3[i])	current
	108	i(@c.x1.xnmos_40_2.c0[i])	current
	109	i(@c.x1.xnmos_40_2.c1[i])	current
	110	i(@c.x1.xnmos_40_2.c2[i])	current
	111	i(@c.x1.xnmos_40_2.c3[i])	current
	112	i(@c.x1.xnmos_40_3.c0[i])	current
	113	i(@c.x1.xnmos_40_3.c1[i])	current
	114	i(@c.x1.xnmos_40_3.c2[i])	current
	115	i(@c.x1.xnmos_40_3.c3[i])	current
	116	i(@c.x1.xsky130_fd_pr__pfet_01v8_axdrnp_0.c0[i])	current
	117	i(@c.x1.xsky130_fd_pr__pfet_01v8_axdrnp_0.c1[i])	current
	118	i(@c.x1.xsky130_fd_pr__pfet_01v8_gxdzbm_1.c0[i])	current
	119	i(@c.x1.xsky130_fd_pr__pfet_01v8_gxdzbm_1.c1[i])	current
	120	i(@c.x1.xvdd_res_0.xsky130_fd_pr__res_xhigh_po_0p69_lzxzx3_0.x0.xsky130_fd_pr__res_xhigh_po_0p69.c1[i])	current
	121	i(@c.x1.xvdd_res_0.xsky130_fd_pr__res_xhigh_po_0p69_lzxzx3_0.x0.xsky130_fd_pr__res_xhigh_po_0p69.c2[i])	current
	122	i(@c.x1.xvdd_res_1.xsky130_fd_pr__res_xhigh_po_0p69_lzxzx3_0.x0.xsky130_fd_pr__res_xhigh_po_0p69.c1[i])	current
	123	i(@c.x1.xvdd_res_1.xsky130_fd_pr__res_xhigh_po_0p69_lzxzx3_0.x0.xsky130_fd_pr__res_xhigh_po_0p69.c2[i])	current
	124	i(@c.x2.c0[i])	current
	125	i(@c.x2.c1[i])	current
	126	i(@c.x2.c2[i])	current
	127	i(@c.x2.c3[i])	current
	128	i(@c.x2.c4[i])	current
	129	i(@c.x2.xdiff_pair_n_0.c0[i])	current
	130	i(@c.x2.xdiff_pair_n_0.c1[i])	current
	131	i(@c.x2.xdiff_pair_n_0.xn40x1_0.c0[i])	current
	132	i(@c.x2.xdiff_pair_n_0.xn40x1_0.c1[i])	current
	133	i(@c.x2.xdiff_pair_n_0.xn40x1_0.c2[i])	current
	134	i(@c.x2.xdiff_pair_n_0.xn40x1_1.c0[i])	current
	135	i(@c.x2.xdiff_pair_n_0.xn40x1_1.c1[i])	current
	136	i(@c.x2.xdiff_pair_n_0.xn40x1_1.c2[i])	current
	137	i(@c.x2.xdiff_pair_p_0.c0[i])	current
	138	i(@c.x2.xdiff_pair_p_0.xp40x1_0.c0[i])	current
	139	i(@c.x2.xdiff_pair_p_0.xp40x1_0.c1[i])	current
	140	i(@c.x2.xdiff_pair_p_0.xp40x1_1.c0[i])	current
	141	i(@c.x2.xdiff_pair_p_0.xp40x1_1.c1[i])	current
	142	i(@c.x2.xn70x1_0.c0[i])	current
	143	i(@c.x2.xn70x1_0.c1[i])	current
	144	i(@c.x2.xn70x1_0.c2[i])	current
	145	i(@c.x2.xsky130_fd_pr__cap_mim_m3_1_lj5jlg_0.c0[i])	current
	146	i(@c.x2.xsky130_fd_pr__cap_mim_m3_1_lj5jlg_0.c1[i])	current
	147	i(@c.x2.xsky130_fd_pr__cap_mim_m3_1_lj5jlg_0.c2[i])	current
	148	i(@c.x2.xsky130_fd_pr__cap_mim_m3_1_lj5jlg_0.x0.c1[i])	current
	149	i(@c.x2.xsky130_fd_pr__cap_mim_m3_1_lj5jlg_1.c0[i])	current
	150	i(@c.x2.xsky130_fd_pr__cap_mim_m3_1_lj5jlg_1.c1[i])	current
	151	i(@c.x2.xsky130_fd_pr__cap_mim_m3_1_lj5jlg_1.c2[i])	current
	152	i(@c.x2.xsky130_fd_pr__cap_mim_m3_1_lj5jlg_1.x0.c1[i])	current
	153	i(@c.x2.xsky130_fd_pr__res_xhigh_po_0p35_bb2zh9_0.x0.xsky130_fd_pr__res_xhigh_po_0p35.c1[i])	current
	154	i(@c.x2.xsky130_fd_pr__res_xhigh_po_0p35_bb2zh9_0.x0.xsky130_fd_pr__res_xhigh_po_0p35.c2[i])	current
	155	i(@c.x2.xsky130_fd_pr__res_xhigh_po_5p73_7d764l_0.x0.xsky130_fd_pr__res_xhigh_po_5p73.c1[i])	current
	156	i(@c.x2.xsky130_fd_pr__res_xhigh_po_5p73_7d764l_0.x0.xsky130_fd_pr__res_xhigh_po_5p73.c2[i])	current
	157	i(@c.x2.xsky130_fd_pr__res_xhigh_po_5p73_f3ynpn_0.x0.xsky130_fd_pr__res_xhigh_po_5p73.c1[i])	current
	158	i(@c.x2.xsky130_fd_pr__res_xhigh_po_5p73_f3ynpn_0.x0.xsky130_fd_pr__res_xhigh_po_5p73.c2[i])	current
	159	i(@c.x2.xsky130_fd_pr__res_xhigh_po_5p73_g7vz5e_0.x0.xsky130_fd_pr__res_xhigh_po_5p73.c1[i])	current
	160	i(@c.x2.xsky130_fd_pr__res_xhigh_po_5p73_g7vz5e_0.x0.xsky130_fd_pr__res_xhigh_po_5p73.c2[i])	current
	161	i(@c1[i])	current
	162	i(@m.x1.xgilbert_0.xnmos_40_0.x0.msky130_fd_pr__nfet_01v8[ib])	current dims=0
	163	i(@m.x1.xgilbert_0.xnmos_40_0.x0.msky130_fd_pr__nfet_01v8[id])	current
	164	i(@m.x1.xgilbert_0.xnmos_40_0.x0.msky130_fd_pr__nfet_01v8[ig])	current dims=0
	165	i(@m.x1.xgilbert_0.xnmos_40_0.x0.msky130_fd_pr__nfet_01v8[is])	current dims=0
	166	i(@m.x1.xgilbert_0.xnmos_40_0.x1.msky130_fd_pr__nfet_01v8[ib])	current dims=0
	167	i(@m.x1.xgilbert_0.xnmos_40_0.x1.msky130_fd_pr__nfet_01v8[id])	current
	168	i(@m.x1.xgilbert_0.xnmos_40_0.x1.msky130_fd_pr__nfet_01v8[ig])	current dims=0
	169	i(@m.x1.xgilbert_0.xnmos_40_0.x1.msky130_fd_pr__nfet_01v8[is])	current dims=0
	170	i(@m.x1.xgilbert_0.xnmos_40_0.x2.msky130_fd_pr__nfet_01v8[ib])	current dims=0
	171	i(@m.x1.xgilbert_0.xnmos_40_0.x2.msky130_fd_pr__nfet_01v8[id])	current
	172	i(@m.x1.xgilbert_0.xnmos_40_0.x2.msky130_fd_pr__nfet_01v8[ig])	current dims=0
	173	i(@m.x1.xgilbert_0.xnmos_40_0.x2.msky130_fd_pr__nfet_01v8[is])	current dims=0
	174	i(@m.x1.xgilbert_0.xnmos_40_0.x3.msky130_fd_pr__nfet_01v8[ib])	current dims=0
	175	i(@m.x1.xgilbert_0.xnmos_40_0.x3.msky130_fd_pr__nfet_01v8[id])	current
	176	i(@m.x1.xgilbert_0.xnmos_40_0.x3.msky130_fd_pr__nfet_01v8[ig])	current dims=0
	177	i(@m.x1.xgilbert_0.xnmos_40_0.x3.msky130_fd_pr__nfet_01v8[is])	current dims=0
	178	i(@m.x1.xgilbert_0.xnmos_40_1.x0.msky130_fd_pr__nfet_01v8[ib])	current dims=0
	179	i(@m.x1.xgilbert_0.xnmos_40_1.x0.msky130_fd_pr__nfet_01v8[id])	current
	180	i(@m.x1.xgilbert_0.xnmos_40_1.x0.msky130_fd_pr__nfet_01v8[ig])	current dims=0
	181	i(@m.x1.xgilbert_0.xnmos_40_1.x0.msky130_fd_pr__nfet_01v8[is])	current dims=0
	182	i(@m.x1.xgilbert_0.xnmos_40_1.x1.msky130_fd_pr__nfet_01v8[ib])	current dims=0
	183	i(@m.x1.xgilbert_0.xnmos_40_1.x1.msky130_fd_pr__nfet_01v8[id])	current
	184	i(@m.x1.xgilbert_0.xnmos_40_1.x1.msky130_fd_pr__nfet_01v8[ig])	current dims=0
	185	i(@m.x1.xgilbert_0.xnmos_40_1.x1.msky130_fd_pr__nfet_01v8[is])	current dims=0
	186	i(@m.x1.xgilbert_0.xnmos_40_1.x2.msky130_fd_pr__nfet_01v8[ib])	current dims=0
	187	i(@m.x1.xgilbert_0.xnmos_40_1.x2.msky130_fd_pr__nfet_01v8[id])	current
	188	i(@m.x1.xgilbert_0.xnmos_40_1.x2.msky130_fd_pr__nfet_01v8[ig])	current dims=0
	189	i(@m.x1.xgilbert_0.xnmos_40_1.x2.msky130_fd_pr__nfet_01v8[is])	current dims=0
	190	i(@m.x1.xgilbert_0.xnmos_40_1.x3.msky130_fd_pr__nfet_01v8[ib])	current dims=0
	191	i(@m.x1.xgilbert_0.xnmos_40_1.x3.msky130_fd_pr__nfet_01v8[id])	current
	192	i(@m.x1.xgilbert_0.xnmos_40_1.x3.msky130_fd_pr__nfet_01v8[ig])	current dims=0
	193	i(@m.x1.xgilbert_0.xnmos_40_1.x3.msky130_fd_pr__nfet_01v8[is])	current dims=0
	194	i(@m.x1.xgilbert_1.xnmos_40_0.x0.msky130_fd_pr__nfet_01v8[ib])	current dims=0
	195	i(@m.x1.xgilbert_1.xnmos_40_0.x0.msky130_fd_pr__nfet_01v8[id])	current
	196	i(@m.x1.xgilbert_1.xnmos_40_0.x0.msky130_fd_pr__nfet_01v8[ig])	current dims=0
	197	i(@m.x1.xgilbert_1.xnmos_40_0.x0.msky130_fd_pr__nfet_01v8[is])	current dims=0
	198	i(@m.x1.xgilbert_1.xnmos_40_0.x1.msky130_fd_pr__nfet_01v8[ib])	current dims=0
	199	i(@m.x1.xgilbert_1.xnmos_40_0.x1.msky130_fd_pr__nfet_01v8[id])	current
	200	i(@m.x1.xgilbert_1.xnmos_40_0.x1.msky130_fd_pr__nfet_01v8[ig])	current dims=0
	201	i(@m.x1.xgilbert_1.xnmos_40_0.x1.msky130_fd_pr__nfet_01v8[is])	current dims=0
	202	i(@m.x1.xgilbert_1.xnmos_40_0.x2.msky130_fd_pr__nfet_01v8[ib])	current dims=0
	203	i(@m.x1.xgilbert_1.xnmos_40_0.x2.msky130_fd_pr__nfet_01v8[id])	current
	204	i(@m.x1.xgilbert_1.xnmos_40_0.x2.msky130_fd_pr__nfet_01v8[ig])	current dims=0
	205	i(@m.x1.xgilbert_1.xnmos_40_0.x2.msky130_fd_pr__nfet_01v8[is])	current dims=0
	206	i(@m.x1.xgilbert_1.xnmos_40_0.x3.msky130_fd_pr__nfet_01v8[ib])	current dims=0
	207	i(@m.x1.xgilbert_1.xnmos_40_0.x3.msky130_fd_pr__nfet_01v8[id])	current
	208	i(@m.x1.xgilbert_1.xnmos_40_0.x3.msky130_fd_pr__nfet_01v8[ig])	current dims=0
	209	i(@m.x1.xgilbert_1.xnmos_40_0.x3.msky130_fd_pr__nfet_01v8[is])	current dims=0
	210	i(@m.x1.xgilbert_1.xnmos_40_1.x0.msky130_fd_pr__nfet_01v8[ib])	current dims=0
	211	i(@m.x1.xgilbert_1.xnmos_40_1.x0.msky130_fd_pr__nfet_01v8[id])	current
	212	i(@m.x1.xgilbert_1.xnmos_40_1.x0.msky130_fd_pr__nfet_01v8[ig])	current dims=0
	213	i(@m.x1.xgilbert_1.xnmos_40_1.x0.msky130_fd_pr__nfet_01v8[is])	current dims=0
	214	i(@m.x1.xgilbert_1.xnmos_40_1.x1.msky130_fd_pr__nfet_01v8[ib])	current dims=0
	215	i(@m.x1.xgilbert_1.xnmos_40_1.x1.msky130_fd_pr__nfet_01v8[id])	current
	216	i(@m.x1.xgilbert_1.xnmos_40_1.x1.msky130_fd_pr__nfet_01v8[ig])	current dims=0
	217	i(@m.x1.xgilbert_1.xnmos_40_1.x1.msky130_fd_pr__nfet_01v8[is])	current dims=0
	218	i(@m.x1.xgilbert_1.xnmos_40_1.x2.msky130_fd_pr__nfet_01v8[ib])	current dims=0
	219	i(@m.x1.xgilbert_1.xnmos_40_1.x2.msky130_fd_pr__nfet_01v8[id])	current
	220	i(@m.x1.xgilbert_1.xnmos_40_1.x2.msky130_fd_pr__nfet_01v8[ig])	current dims=0
	221	i(@m.x1.xgilbert_1.xnmos_40_1.x2.msky130_fd_pr__nfet_01v8[is])	current dims=0
	222	i(@m.x1.xgilbert_1.xnmos_40_1.x3.msky130_fd_pr__nfet_01v8[ib])	current dims=0
	223	i(@m.x1.xgilbert_1.xnmos_40_1.x3.msky130_fd_pr__nfet_01v8[id])	current
	224	i(@m.x1.xgilbert_1.xnmos_40_1.x3.msky130_fd_pr__nfet_01v8[ig])	current dims=0
	225	i(@m.x1.xgilbert_1.xnmos_40_1.x3.msky130_fd_pr__nfet_01v8[is])	current dims=0
	226	i(@m.x1.xgilbert_2.xnmos_40_0.x0.msky130_fd_pr__nfet_01v8[ib])	current dims=0
	227	i(@m.x1.xgilbert_2.xnmos_40_0.x0.msky130_fd_pr__nfet_01v8[id])	current
	228	i(@m.x1.xgilbert_2.xnmos_40_0.x0.msky130_fd_pr__nfet_01v8[ig])	current dims=0
	229	i(@m.x1.xgilbert_2.xnmos_40_0.x0.msky130_fd_pr__nfet_01v8[is])	current dims=0
	230	i(@m.x1.xgilbert_2.xnmos_40_0.x1.msky130_fd_pr__nfet_01v8[ib])	current dims=0
	231	i(@m.x1.xgilbert_2.xnmos_40_0.x1.msky130_fd_pr__nfet_01v8[id])	current
	232	i(@m.x1.xgilbert_2.xnmos_40_0.x1.msky130_fd_pr__nfet_01v8[ig])	current dims=0
	233	i(@m.x1.xgilbert_2.xnmos_40_0.x1.msky130_fd_pr__nfet_01v8[is])	current dims=0
	234	i(@m.x1.xgilbert_2.xnmos_40_0.x2.msky130_fd_pr__nfet_01v8[ib])	current dims=0
	235	i(@m.x1.xgilbert_2.xnmos_40_0.x2.msky130_fd_pr__nfet_01v8[id])	current
	236	i(@m.x1.xgilbert_2.xnmos_40_0.x2.msky130_fd_pr__nfet_01v8[ig])	current dims=0
	237	i(@m.x1.xgilbert_2.xnmos_40_0.x2.msky130_fd_pr__nfet_01v8[is])	current dims=0
	238	i(@m.x1.xgilbert_2.xnmos_40_0.x3.msky130_fd_pr__nfet_01v8[ib])	current dims=0
	239	i(@m.x1.xgilbert_2.xnmos_40_0.x3.msky130_fd_pr__nfet_01v8[id])	current
	240	i(@m.x1.xgilbert_2.xnmos_40_0.x3.msky130_fd_pr__nfet_01v8[ig])	current dims=0
	241	i(@m.x1.xgilbert_2.xnmos_40_0.x3.msky130_fd_pr__nfet_01v8[is])	current dims=0
	242	i(@m.x1.xgilbert_2.xnmos_40_1.x0.msky130_fd_pr__nfet_01v8[ib])	current dims=0
	243	i(@m.x1.xgilbert_2.xnmos_40_1.x0.msky130_fd_pr__nfet_01v8[id])	current
	244	i(@m.x1.xgilbert_2.xnmos_40_1.x0.msky130_fd_pr__nfet_01v8[ig])	current dims=0
	245	i(@m.x1.xgilbert_2.xnmos_40_1.x0.msky130_fd_pr__nfet_01v8[is])	current dims=0
	246	i(@m.x1.xgilbert_2.xnmos_40_1.x1.msky130_fd_pr__nfet_01v8[ib])	current dims=0
	247	i(@m.x1.xgilbert_2.xnmos_40_1.x1.msky130_fd_pr__nfet_01v8[id])	current
	248	i(@m.x1.xgilbert_2.xnmos_40_1.x1.msky130_fd_pr__nfet_01v8[ig])	current dims=0
	249	i(@m.x1.xgilbert_2.xnmos_40_1.x1.msky130_fd_pr__nfet_01v8[is])	current dims=0
	250	i(@m.x1.xgilbert_2.xnmos_40_1.x2.msky130_fd_pr__nfet_01v8[ib])	current dims=0
	251	i(@m.x1.xgilbert_2.xnmos_40_1.x2.msky130_fd_pr__nfet_01v8[id])	current
	252	i(@m.x1.xgilbert_2.xnmos_40_1.x2.msky130_fd_pr__nfet_01v8[ig])	current dims=0
	253	i(@m.x1.xgilbert_2.xnmos_40_1.x2.msky130_fd_pr__nfet_01v8[is])	current dims=0
	254	i(@m.x1.xgilbert_2.xnmos_40_1.x3.msky130_fd_pr__nfet_01v8[ib])	current dims=0
	255	i(@m.x1.xgilbert_2.xnmos_40_1.x3.msky130_fd_pr__nfet_01v8[id])	current
	256	i(@m.x1.xgilbert_2.xnmos_40_1.x3.msky130_fd_pr__nfet_01v8[ig])	current dims=0
	257	i(@m.x1.xgilbert_2.xnmos_40_1.x3.msky130_fd_pr__nfet_01v8[is])	current dims=0
	258	i(@m.x1.xgilbert_3.xnmos_40_0.x0.msky130_fd_pr__nfet_01v8[ib])	current dims=0
	259	i(@m.x1.xgilbert_3.xnmos_40_0.x0.msky130_fd_pr__nfet_01v8[id])	current
	260	i(@m.x1.xgilbert_3.xnmos_40_0.x0.msky130_fd_pr__nfet_01v8[ig])	current dims=0
	261	i(@m.x1.xgilbert_3.xnmos_40_0.x0.msky130_fd_pr__nfet_01v8[is])	current dims=0
	262	i(@m.x1.xgilbert_3.xnmos_40_0.x1.msky130_fd_pr__nfet_01v8[ib])	current dims=0
	263	i(@m.x1.xgilbert_3.xnmos_40_0.x1.msky130_fd_pr__nfet_01v8[id])	current
	264	i(@m.x1.xgilbert_3.xnmos_40_0.x1.msky130_fd_pr__nfet_01v8[ig])	current dims=0
	265	i(@m.x1.xgilbert_3.xnmos_40_0.x1.msky130_fd_pr__nfet_01v8[is])	current dims=0
	266	i(@m.x1.xgilbert_3.xnmos_40_0.x2.msky130_fd_pr__nfet_01v8[ib])	current dims=0
	267	i(@m.x1.xgilbert_3.xnmos_40_0.x2.msky130_fd_pr__nfet_01v8[id])	current
	268	i(@m.x1.xgilbert_3.xnmos_40_0.x2.msky130_fd_pr__nfet_01v8[ig])	current dims=0
	269	i(@m.x1.xgilbert_3.xnmos_40_0.x2.msky130_fd_pr__nfet_01v8[is])	current dims=0
	270	i(@m.x1.xgilbert_3.xnmos_40_0.x3.msky130_fd_pr__nfet_01v8[ib])	current dims=0
	271	i(@m.x1.xgilbert_3.xnmos_40_0.x3.msky130_fd_pr__nfet_01v8[id])	current
	272	i(@m.x1.xgilbert_3.xnmos_40_0.x3.msky130_fd_pr__nfet_01v8[ig])	current dims=0
	273	i(@m.x1.xgilbert_3.xnmos_40_0.x3.msky130_fd_pr__nfet_01v8[is])	current dims=0
	274	i(@m.x1.xgilbert_3.xnmos_40_1.x0.msky130_fd_pr__nfet_01v8[ib])	current dims=0
	275	i(@m.x1.xgilbert_3.xnmos_40_1.x0.msky130_fd_pr__nfet_01v8[id])	current
	276	i(@m.x1.xgilbert_3.xnmos_40_1.x0.msky130_fd_pr__nfet_01v8[ig])	current dims=0
	277	i(@m.x1.xgilbert_3.xnmos_40_1.x0.msky130_fd_pr__nfet_01v8[is])	current dims=0
	278	i(@m.x1.xgilbert_3.xnmos_40_1.x1.msky130_fd_pr__nfet_01v8[ib])	current dims=0
	279	i(@m.x1.xgilbert_3.xnmos_40_1.x1.msky130_fd_pr__nfet_01v8[id])	current
	280	i(@m.x1.xgilbert_3.xnmos_40_1.x1.msky130_fd_pr__nfet_01v8[ig])	current dims=0
	281	i(@m.x1.xgilbert_3.xnmos_40_1.x1.msky130_fd_pr__nfet_01v8[is])	current dims=0
	282	i(@m.x1.xgilbert_3.xnmos_40_1.x2.msky130_fd_pr__nfet_01v8[ib])	current dims=0
	283	i(@m.x1.xgilbert_3.xnmos_40_1.x2.msky130_fd_pr__nfet_01v8[id])	current
	284	i(@m.x1.xgilbert_3.xnmos_40_1.x2.msky130_fd_pr__nfet_01v8[ig])	current dims=0
	285	i(@m.x1.xgilbert_3.xnmos_40_1.x2.msky130_fd_pr__nfet_01v8[is])	current dims=0
	286	i(@m.x1.xgilbert_3.xnmos_40_1.x3.msky130_fd_pr__nfet_01v8[ib])	current dims=0
	287	i(@m.x1.xgilbert_3.xnmos_40_1.x3.msky130_fd_pr__nfet_01v8[id])	current
	288	i(@m.x1.xgilbert_3.xnmos_40_1.x3.msky130_fd_pr__nfet_01v8[ig])	current dims=0
	289	i(@m.x1.xgilbert_3.xnmos_40_1.x3.msky130_fd_pr__nfet_01v8[is])	current dims=0
	290	i(@m.x1.xnmos_40_0.x0.msky130_fd_pr__nfet_01v8[ib])	current dims=0
	291	i(@m.x1.xnmos_40_0.x0.msky130_fd_pr__nfet_01v8[id])	current
	292	i(@m.x1.xnmos_40_0.x0.msky130_fd_pr__nfet_01v8[ig])	current dims=0
	293	i(@m.x1.xnmos_40_0.x0.msky130_fd_pr__nfet_01v8[is])	current dims=0
	294	i(@m.x1.xnmos_40_0.x1.msky130_fd_pr__nfet_01v8[ib])	current dims=0
	295	i(@m.x1.xnmos_40_0.x1.msky130_fd_pr__nfet_01v8[id])	current
	296	i(@m.x1.xnmos_40_0.x1.msky130_fd_pr__nfet_01v8[ig])	current dims=0
	297	i(@m.x1.xnmos_40_0.x1.msky130_fd_pr__nfet_01v8[is])	current dims=0
	298	i(@m.x1.xnmos_40_0.x2.msky130_fd_pr__nfet_01v8[ib])	current dims=0
	299	i(@m.x1.xnmos_40_0.x2.msky130_fd_pr__nfet_01v8[id])	current
	300	i(@m.x1.xnmos_40_0.x2.msky130_fd_pr__nfet_01v8[ig])	current dims=0
	301	i(@m.x1.xnmos_40_0.x2.msky130_fd_pr__nfet_01v8[is])	current dims=0
	302	i(@m.x1.xnmos_40_0.x3.msky130_fd_pr__nfet_01v8[ib])	current dims=0
	303	i(@m.x1.xnmos_40_0.x3.msky130_fd_pr__nfet_01v8[id])	current
	304	i(@m.x1.xnmos_40_0.x3.msky130_fd_pr__nfet_01v8[ig])	current dims=0
	305	i(@m.x1.xnmos_40_0.x3.msky130_fd_pr__nfet_01v8[is])	current dims=0
	306	i(@m.x1.xnmos_40_1.x0.msky130_fd_pr__nfet_01v8[ib])	current dims=0
	307	i(@m.x1.xnmos_40_1.x0.msky130_fd_pr__nfet_01v8[id])	current
	308	i(@m.x1.xnmos_40_1.x0.msky130_fd_pr__nfet_01v8[ig])	current dims=0
	309	i(@m.x1.xnmos_40_1.x0.msky130_fd_pr__nfet_01v8[is])	current dims=0
	310	i(@m.x1.xnmos_40_1.x1.msky130_fd_pr__nfet_01v8[ib])	current dims=0
	311	i(@m.x1.xnmos_40_1.x1.msky130_fd_pr__nfet_01v8[id])	current
	312	i(@m.x1.xnmos_40_1.x1.msky130_fd_pr__nfet_01v8[ig])	current dims=0
	313	i(@m.x1.xnmos_40_1.x1.msky130_fd_pr__nfet_01v8[is])	current dims=0
	314	i(@m.x1.xnmos_40_1.x2.msky130_fd_pr__nfet_01v8[ib])	current dims=0
	315	i(@m.x1.xnmos_40_1.x2.msky130_fd_pr__nfet_01v8[id])	current
	316	i(@m.x1.xnmos_40_1.x2.msky130_fd_pr__nfet_01v8[ig])	current dims=0
	317	i(@m.x1.xnmos_40_1.x2.msky130_fd_pr__nfet_01v8[is])	current dims=0
	318	i(@m.x1.xnmos_40_1.x3.msky130_fd_pr__nfet_01v8[ib])	current dims=0
	319	i(@m.x1.xnmos_40_1.x3.msky130_fd_pr__nfet_01v8[id])	current
	320	i(@m.x1.xnmos_40_1.x3.msky130_fd_pr__nfet_01v8[ig])	current dims=0
	321	i(@m.x1.xnmos_40_1.x3.msky130_fd_pr__nfet_01v8[is])	current dims=0
	322	i(@m.x1.xnmos_40_2.x0.msky130_fd_pr__nfet_01v8[ib])	current dims=0
	323	i(@m.x1.xnmos_40_2.x0.msky130_fd_pr__nfet_01v8[id])	current
	324	i(@m.x1.xnmos_40_2.x0.msky130_fd_pr__nfet_01v8[ig])	current dims=0
	325	i(@m.x1.xnmos_40_2.x0.msky130_fd_pr__nfet_01v8[is])	current dims=0
	326	i(@m.x1.xnmos_40_2.x1.msky130_fd_pr__nfet_01v8[ib])	current dims=0
	327	i(@m.x1.xnmos_40_2.x1.msky130_fd_pr__nfet_01v8[id])	current
	328	i(@m.x1.xnmos_40_2.x1.msky130_fd_pr__nfet_01v8[ig])	current dims=0
	329	i(@m.x1.xnmos_40_2.x1.msky130_fd_pr__nfet_01v8[is])	current dims=0
	330	i(@m.x1.xnmos_40_2.x2.msky130_fd_pr__nfet_01v8[ib])	current dims=0
	331	i(@m.x1.xnmos_40_2.x2.msky130_fd_pr__nfet_01v8[id])	current
	332	i(@m.x1.xnmos_40_2.x2.msky130_fd_pr__nfet_01v8[ig])	current dims=0
	333	i(@m.x1.xnmos_40_2.x2.msky130_fd_pr__nfet_01v8[is])	current dims=0
	334	i(@m.x1.xnmos_40_2.x3.msky130_fd_pr__nfet_01v8[ib])	current dims=0
	335	i(@m.x1.xnmos_40_2.x3.msky130_fd_pr__nfet_01v8[id])	current
	336	i(@m.x1.xnmos_40_2.x3.msky130_fd_pr__nfet_01v8[ig])	current dims=0
	337	i(@m.x1.xnmos_40_2.x3.msky130_fd_pr__nfet_01v8[is])	current dims=0
	338	i(@m.x1.xnmos_40_3.x0.msky130_fd_pr__nfet_01v8[ib])	current dims=0
	339	i(@m.x1.xnmos_40_3.x0.msky130_fd_pr__nfet_01v8[id])	current
	340	i(@m.x1.xnmos_40_3.x0.msky130_fd_pr__nfet_01v8[ig])	current dims=0
	341	i(@m.x1.xnmos_40_3.x0.msky130_fd_pr__nfet_01v8[is])	current dims=0
	342	i(@m.x1.xnmos_40_3.x1.msky130_fd_pr__nfet_01v8[ib])	current dims=0
	343	i(@m.x1.xnmos_40_3.x1.msky130_fd_pr__nfet_01v8[id])	current
	344	i(@m.x1.xnmos_40_3.x1.msky130_fd_pr__nfet_01v8[ig])	current dims=0
	345	i(@m.x1.xnmos_40_3.x1.msky130_fd_pr__nfet_01v8[is])	current dims=0
	346	i(@m.x1.xnmos_40_3.x2.msky130_fd_pr__nfet_01v8[ib])	current dims=0
	347	i(@m.x1.xnmos_40_3.x2.msky130_fd_pr__nfet_01v8[id])	current
	348	i(@m.x1.xnmos_40_3.x2.msky130_fd_pr__nfet_01v8[ig])	current dims=0
	349	i(@m.x1.xnmos_40_3.x2.msky130_fd_pr__nfet_01v8[is])	current dims=0
	350	i(@m.x1.xnmos_40_3.x3.msky130_fd_pr__nfet_01v8[ib])	current dims=0
	351	i(@m.x1.xnmos_40_3.x3.msky130_fd_pr__nfet_01v8[id])	current
	352	i(@m.x1.xnmos_40_3.x3.msky130_fd_pr__nfet_01v8[ig])	current dims=0
	353	i(@m.x1.xnmos_40_3.x3.msky130_fd_pr__nfet_01v8[is])	current dims=0
	354	i(@m.x1.xsky130_fd_pr__nfet_01v8_8wufr5_0.x0.msky130_fd_pr__nfet_01v8[ib])	current dims=0
	355	i(@m.x1.xsky130_fd_pr__nfet_01v8_8wufr5_0.x0.msky130_fd_pr__nfet_01v8[id])	current
	356	i(@m.x1.xsky130_fd_pr__nfet_01v8_8wufr5_0.x0.msky130_fd_pr__nfet_01v8[ig])	current dims=0
	357	i(@m.x1.xsky130_fd_pr__nfet_01v8_8wufr5_0.x0.msky130_fd_pr__nfet_01v8[is])	current dims=0
	358	i(@m.x1.xsky130_fd_pr__nfet_01v8_p82rfk_0.x0.msky130_fd_pr__nfet_01v8[ib])	current dims=0
	359	i(@m.x1.xsky130_fd_pr__nfet_01v8_p82rfk_0.x0.msky130_fd_pr__nfet_01v8[id])	current
	360	i(@m.x1.xsky130_fd_pr__nfet_01v8_p82rfk_0.x0.msky130_fd_pr__nfet_01v8[ig])	current dims=0
	361	i(@m.x1.xsky130_fd_pr__nfet_01v8_p82rfk_0.x0.msky130_fd_pr__nfet_01v8[is])	current dims=0
	362	i(@m.x1.xsky130_fd_pr__pfet_01v8_axdrnp_0.x0.msky130_fd_pr__pfet_01v8[ib])	current dims=0
	363	i(@m.x1.xsky130_fd_pr__pfet_01v8_axdrnp_0.x0.msky130_fd_pr__pfet_01v8[id])	current
	364	i(@m.x1.xsky130_fd_pr__pfet_01v8_axdrnp_0.x0.msky130_fd_pr__pfet_01v8[ig])	current dims=0
	365	i(@m.x1.xsky130_fd_pr__pfet_01v8_axdrnp_0.x0.msky130_fd_pr__pfet_01v8[is])	current dims=0
	366	i(@m.x1.xsky130_fd_pr__pfet_01v8_gxdzbm_1.x0.msky130_fd_pr__pfet_01v8[ib])	current dims=0
	367	i(@m.x1.xsky130_fd_pr__pfet_01v8_gxdzbm_1.x0.msky130_fd_pr__pfet_01v8[id])	current
	368	i(@m.x1.xsky130_fd_pr__pfet_01v8_gxdzbm_1.x0.msky130_fd_pr__pfet_01v8[ig])	current dims=0
	369	i(@m.x1.xsky130_fd_pr__pfet_01v8_gxdzbm_1.x0.msky130_fd_pr__pfet_01v8[is])	current dims=0
	370	i(@m.x2.xdiff_pair_n_0.xn40x1_0.x0.msky130_fd_pr__nfet_01v8[ib])	current dims=0
	371	i(@m.x2.xdiff_pair_n_0.xn40x1_0.x0.msky130_fd_pr__nfet_01v8[id])	current
	372	i(@m.x2.xdiff_pair_n_0.xn40x1_0.x0.msky130_fd_pr__nfet_01v8[ig])	current dims=0
	373	i(@m.x2.xdiff_pair_n_0.xn40x1_0.x0.msky130_fd_pr__nfet_01v8[is])	current dims=0
	374	i(@m.x2.xdiff_pair_n_0.xn40x1_0.x1.msky130_fd_pr__nfet_01v8[ib])	current dims=0
	375	i(@m.x2.xdiff_pair_n_0.xn40x1_0.x1.msky130_fd_pr__nfet_01v8[id])	current
	376	i(@m.x2.xdiff_pair_n_0.xn40x1_0.x1.msky130_fd_pr__nfet_01v8[ig])	current dims=0
	377	i(@m.x2.xdiff_pair_n_0.xn40x1_0.x1.msky130_fd_pr__nfet_01v8[is])	current dims=0
	378	i(@m.x2.xdiff_pair_n_0.xn40x1_0.x2.msky130_fd_pr__nfet_01v8[ib])	current dims=0
	379	i(@m.x2.xdiff_pair_n_0.xn40x1_0.x2.msky130_fd_pr__nfet_01v8[id])	current
	380	i(@m.x2.xdiff_pair_n_0.xn40x1_0.x2.msky130_fd_pr__nfet_01v8[ig])	current dims=0
	381	i(@m.x2.xdiff_pair_n_0.xn40x1_0.x2.msky130_fd_pr__nfet_01v8[is])	current dims=0
	382	i(@m.x2.xdiff_pair_n_0.xn40x1_0.x3.msky130_fd_pr__nfet_01v8[ib])	current dims=0
	383	i(@m.x2.xdiff_pair_n_0.xn40x1_0.x3.msky130_fd_pr__nfet_01v8[id])	current
	384	i(@m.x2.xdiff_pair_n_0.xn40x1_0.x3.msky130_fd_pr__nfet_01v8[ig])	current dims=0
	385	i(@m.x2.xdiff_pair_n_0.xn40x1_0.x3.msky130_fd_pr__nfet_01v8[is])	current dims=0
	386	i(@m.x2.xdiff_pair_n_0.xn40x1_0.x4.msky130_fd_pr__nfet_01v8[ib])	current dims=0
	387	i(@m.x2.xdiff_pair_n_0.xn40x1_0.x4.msky130_fd_pr__nfet_01v8[id])	current
	388	i(@m.x2.xdiff_pair_n_0.xn40x1_0.x4.msky130_fd_pr__nfet_01v8[ig])	current dims=0
	389	i(@m.x2.xdiff_pair_n_0.xn40x1_0.x4.msky130_fd_pr__nfet_01v8[is])	current dims=0
	390	i(@m.x2.xdiff_pair_n_0.xn40x1_1.x0.msky130_fd_pr__nfet_01v8[ib])	current dims=0
	391	i(@m.x2.xdiff_pair_n_0.xn40x1_1.x0.msky130_fd_pr__nfet_01v8[id])	current
	392	i(@m.x2.xdiff_pair_n_0.xn40x1_1.x0.msky130_fd_pr__nfet_01v8[ig])	current dims=0
	393	i(@m.x2.xdiff_pair_n_0.xn40x1_1.x0.msky130_fd_pr__nfet_01v8[is])	current dims=0
	394	i(@m.x2.xdiff_pair_n_0.xn40x1_1.x1.msky130_fd_pr__nfet_01v8[ib])	current dims=0
	395	i(@m.x2.xdiff_pair_n_0.xn40x1_1.x1.msky130_fd_pr__nfet_01v8[id])	current
	396	i(@m.x2.xdiff_pair_n_0.xn40x1_1.x1.msky130_fd_pr__nfet_01v8[ig])	current dims=0
	397	i(@m.x2.xdiff_pair_n_0.xn40x1_1.x1.msky130_fd_pr__nfet_01v8[is])	current dims=0
	398	i(@m.x2.xdiff_pair_n_0.xn40x1_1.x2.msky130_fd_pr__nfet_01v8[ib])	current dims=0
	399	i(@m.x2.xdiff_pair_n_0.xn40x1_1.x2.msky130_fd_pr__nfet_01v8[id])	current
	400	i(@m.x2.xdiff_pair_n_0.xn40x1_1.x2.msky130_fd_pr__nfet_01v8[ig])	current dims=0
	401	i(@m.x2.xdiff_pair_n_0.xn40x1_1.x2.msky130_fd_pr__nfet_01v8[is])	current dims=0
	402	i(@m.x2.xdiff_pair_n_0.xn40x1_1.x3.msky130_fd_pr__nfet_01v8[ib])	current dims=0
	403	i(@m.x2.xdiff_pair_n_0.xn40x1_1.x3.msky130_fd_pr__nfet_01v8[id])	current
	404	i(@m.x2.xdiff_pair_n_0.xn40x1_1.x3.msky130_fd_pr__nfet_01v8[ig])	current dims=0
	405	i(@m.x2.xdiff_pair_n_0.xn40x1_1.x3.msky130_fd_pr__nfet_01v8[is])	current dims=0
	406	i(@m.x2.xdiff_pair_n_0.xn40x1_1.x4.msky130_fd_pr__nfet_01v8[ib])	current dims=0
	407	i(@m.x2.xdiff_pair_n_0.xn40x1_1.x4.msky130_fd_pr__nfet_01v8[id])	current
	408	i(@m.x2.xdiff_pair_n_0.xn40x1_1.x4.msky130_fd_pr__nfet_01v8[ig])	current dims=0
	409	i(@m.x2.xdiff_pair_n_0.xn40x1_1.x4.msky130_fd_pr__nfet_01v8[is])	current dims=0