Title: ** sch_path: /home/renslow/documents/ece5120/hw08/mag/demod_tb.sch
Date: Wed Nov 27 19:43:40  2024
Plotname: Operating Point
Flags: real
No. Variables: 975
No. Points: 1
Variables:
	0	v(vss)	voltage
	1	i(@b.x1.xsky130_fd_pr__res_xhigh_po_0p35_v22kjh_0.x0.xsky130_fd_pr__res_xhigh_po_0p35.brbody[i])	current
	2	i(@b.x1.xsky130_fd_pr__res_xhigh_po_0p35_v22kjh_0.x0.xsky130_fd_pr__res_xhigh_po_0p35.brend[i])	current
	3	i(@b.x1.xsky130_fd_pr__res_xhigh_po_0p35_v22kjh_1.x0.xsky130_fd_pr__res_xhigh_po_0p35.brbody[i])	current
	4	i(@b.x1.xsky130_fd_pr__res_xhigh_po_0p35_v22kjh_1.x0.xsky130_fd_pr__res_xhigh_po_0p35.brend[i])	current
	5	i(@b.x1.xsky130_fd_pr__res_xhigh_po_0p35_y6f53n_0.x0.xsky130_fd_pr__res_xhigh_po_0p35.brbody[i])	current
	6	i(@b.x1.xsky130_fd_pr__res_xhigh_po_0p35_y6f53n_0.x0.xsky130_fd_pr__res_xhigh_po_0p35.brend[i])	current
	7	i(@b.x1.xsky130_fd_pr__res_xhigh_po_0p35_y6f53n_1.x0.xsky130_fd_pr__res_xhigh_po_0p35.brbody[i])	current
	8	i(@b.x1.xsky130_fd_pr__res_xhigh_po_0p35_y6f53n_1.x0.xsky130_fd_pr__res_xhigh_po_0p35.brend[i])	current
	9	i(@c.x1.c0[i])	current
	10	i(@c.x1.c1[i])	current
	11	i(@c.x1.c2[i])	current
	12	i(@c.x1.c3[i])	current
	13	i(@c.x1.c4[i])	current
	14	i(@c.x1.c5[i])	current
	15	i(@c.x1.c6[i])	current
	16	i(@c.x1.c8[i])	current
	17	i(@c.x1.c9[i])	current
	18	i(@c.x1.c10[i])	current
	19	i(@c.x1.c11[i])	current
	20	i(@c.x1.c12[i])	current
	21	i(@c.x1.c13[i])	current
	22	i(@c.x1.c14[i])	current
	23	i(@c.x1.c15[i])	current
	24	i(@c.x1.c16[i])	current
	25	i(@c.x1.xdiff80_0.c0[i])	current
	26	i(@c.x1.xdiff80_0.xp1_80x1_0.c0[i])	current
	27	i(@c.x1.xdiff80_0.xp1_80x1_0.c1[i])	current
	28	i(@c.x1.xdiff80_0.xp1_80x1_1.c0[i])	current
	29	i(@c.x1.xdiff80_0.xp1_80x1_1.c1[i])	current
	30	i(@c.x1.xn1x15_diff_pair_0.c0[i])	current
	31	i(@c.x1.xn1x15_diff_pair_0.c1[i])	current
	32	i(@c.x1.xn1x15_diff_pair_0.xn1x15_0.c0[i])	current
	33	i(@c.x1.xn1x15_diff_pair_0.xn1x15_1.c0[i])	current
	34	i(@c.x1.xn1x30_diff_pair_0.c0[i])	current
	35	i(@c.x1.xn1x30_diff_pair_0.c1[i])	current
	36	i(@c.x1.xn1x30_diff_pair_0.xn1x30_0.c0[i])	current
	37	i(@c.x1.xn1x30_diff_pair_0.xn1x30_0.c1[i])	current
	38	i(@c.x1.xn1x30_diff_pair_0.xn1x30_2.c0[i])	current
	39	i(@c.x1.xn1x30_diff_pair_0.xn1x30_2.c1[i])	current
	40	i(@c.x1.xp1_80x80_0.c0[i])	current
	41	i(@c.x1.xp1_80x80_0.c1[i])	current
	42	i(@c.x1.xp1_80x80_0.c2[i])	current
	43	i(@c.x1.xp1_80x80_0.c3[i])	current
	44	i(@c.x1.xp1_80x80_0.c4[i])	current
	45	i(@c.x1.xp1_80x80_0.c5[i])	current
	46	i(@c.x1.xp1_80x80_0.c6[i])	current
	47	i(@c.x1.xp1_80x80_0.c7[i])	current
	48	i(@c.x1.xp1_80x80_0.c8[i])	current
	49	i(@c.x1.xp1x15_diif_pair_0.c0[i])	current
	50	i(@c.x1.xp1x15_diif_pair_0.xp1x15_0.c0[i])	current
	51	i(@c.x1.xp1x15_diif_pair_0.xp1x15_0.c1[i])	current
	52	i(@c.x1.xp1x15_diif_pair_0.xp1x15_1.c0[i])	current
	53	i(@c.x1.xp1x15_diif_pair_0.xp1x15_1.c1[i])	current
	54	i(@c.x1.xp1x30_diff_pair_0.c0[i])	current
	55	i(@c.x1.xp1x30_diff_pair_0.xp1x30_0.c0[i])	current
	56	i(@c.x1.xp1x30_diff_pair_0.xp1x30_0.c1[i])	current
	57	i(@c.x1.xp1x30_diff_pair_0.xp1x30_0.c2[i])	current
	58	i(@c.x1.xp1x30_diff_pair_0.xp1x30_1.c0[i])	current
	59	i(@c.x1.xp1x30_diff_pair_0.xp1x30_1.c1[i])	current
	60	i(@c.x1.xp1x30_diff_pair_0.xp1x30_1.c2[i])	current
	61	i(@c.x1.xsky130_fd_pr__res_xhigh_po_0p35_v22kjh_0.x0.xsky130_fd_pr__res_xhigh_po_0p35.c1[i])	current
	62	i(@c.x1.xsky130_fd_pr__res_xhigh_po_0p35_v22kjh_0.x0.xsky130_fd_pr__res_xhigh_po_0p35.c2[i])	current
	63	i(@c.x1.xsky130_fd_pr__res_xhigh_po_0p35_v22kjh_1.x0.xsky130_fd_pr__res_xhigh_po_0p35.c1[i])	current
	64	i(@c.x1.xsky130_fd_pr__res_xhigh_po_0p35_v22kjh_1.x0.xsky130_fd_pr__res_xhigh_po_0p35.c2[i])	current
	65	i(@c.x1.xsky130_fd_pr__res_xhigh_po_0p35_y6f53n_0.x0.xsky130_fd_pr__res_xhigh_po_0p35.c1[i])	current
	66	i(@c.x1.xsky130_fd_pr__res_xhigh_po_0p35_y6f53n_0.x0.xsky130_fd_pr__res_xhigh_po_0p35.c2[i])	current
	67	i(@c.x1.xsky130_fd_pr__res_xhigh_po_0p35_y6f53n_1.x0.xsky130_fd_pr__res_xhigh_po_0p35.c1[i])	current
	68	i(@c.x1.xsky130_fd_pr__res_xhigh_po_0p35_y6f53n_1.x0.xsky130_fd_pr__res_xhigh_po_0p35.c2[i])	current
	69	i(@c.x1.xsky130_fd_pr__rf_npn_05v5_w1p00l1p00_0.c0[i])	current
	70	i(@c1[i])	current
	71	i(@c2[i])	current
	72	i(@m.x1.xdiff80_0.xp1_80x1_0.x0.msky130_fd_pr__pfet_01v8[ib])	current dims=0
	73	i(@m.x1.xdiff80_0.xp1_80x1_0.x0.msky130_fd_pr__pfet_01v8[id])	current
	74	i(@m.x1.xdiff80_0.xp1_80x1_0.x0.msky130_fd_pr__pfet_01v8[ig])	current dims=0
	75	i(@m.x1.xdiff80_0.xp1_80x1_0.x0.msky130_fd_pr__pfet_01v8[is])	current dims=0
	76	i(@m.x1.xdiff80_0.xp1_80x1_0.x1.msky130_fd_pr__pfet_01v8[ib])	current dims=0
	77	i(@m.x1.xdiff80_0.xp1_80x1_0.x1.msky130_fd_pr__pfet_01v8[id])	current
	78	i(@m.x1.xdiff80_0.xp1_80x1_0.x1.msky130_fd_pr__pfet_01v8[ig])	current dims=0
	79	i(@m.x1.xdiff80_0.xp1_80x1_0.x1.msky130_fd_pr__pfet_01v8[is])	current dims=0
	80	i(@m.x1.xdiff80_0.xp1_80x1_0.x2.msky130_fd_pr__pfet_01v8[ib])	current dims=0
	81	i(@m.x1.xdiff80_0.xp1_80x1_0.x2.msky130_fd_pr__pfet_01v8[id])	current
	82	i(@m.x1.xdiff80_0.xp1_80x1_0.x2.msky130_fd_pr__pfet_01v8[ig])	current dims=0
	83	i(@m.x1.xdiff80_0.xp1_80x1_0.x2.msky130_fd_pr__pfet_01v8[is])	current dims=0
	84	i(@m.x1.xdiff80_0.xp1_80x1_0.x3.msky130_fd_pr__pfet_01v8[ib])	current dims=0
	85	i(@m.x1.xdiff80_0.xp1_80x1_0.x3.msky130_fd_pr__pfet_01v8[id])	current
	86	i(@m.x1.xdiff80_0.xp1_80x1_0.x3.msky130_fd_pr__pfet_01v8[ig])	current dims=0
	87	i(@m.x1.xdiff80_0.xp1_80x1_0.x3.msky130_fd_pr__pfet_01v8[is])	current dims=0
	88	i(@m.x1.xdiff80_0.xp1_80x1_0.x4.msky130_fd_pr__pfet_01v8[ib])	current dims=0
	89	i(@m.x1.xdiff80_0.xp1_80x1_0.x4.msky130_fd_pr__pfet_01v8[id])	current
	90	i(@m.x1.xdiff80_0.xp1_80x1_0.x4.msky130_fd_pr__pfet_01v8[ig])	current dims=0
	91	i(@m.x1.xdiff80_0.xp1_80x1_0.x4.msky130_fd_pr__pfet_01v8[is])	current dims=0
	92	i(@m.x1.xdiff80_0.xp1_80x1_1.x0.msky130_fd_pr__pfet_01v8[ib])	current dims=0
	93	i(@m.x1.xdiff80_0.xp1_80x1_1.x0.msky130_fd_pr__pfet_01v8[id])	current
	94	i(@m.x1.xdiff80_0.xp1_80x1_1.x0.msky130_fd_pr__pfet_01v8[ig])	current dims=0
	95	i(@m.x1.xdiff80_0.xp1_80x1_1.x0.msky130_fd_pr__pfet_01v8[is])	current dims=0
	96	i(@m.x1.xdiff80_0.xp1_80x1_1.x1.msky130_fd_pr__pfet_01v8[ib])	current dims=0
	97	i(@m.x1.xdiff80_0.xp1_80x1_1.x1.msky130_fd_pr__pfet_01v8[id])	current
	98	i(@m.x1.xdiff80_0.xp1_80x1_1.x1.msky130_fd_pr__pfet_01v8[ig])	current dims=0
	99	i(@m.x1.xdiff80_0.xp1_80x1_1.x1.msky130_fd_pr__pfet_01v8[is])	current dims=0
	100	i(@m.x1.xdiff80_0.xp1_80x1_1.x2.msky130_fd_pr__pfet_01v8[ib])	current dims=0
	101	i(@m.x1.xdiff80_0.xp1_80x1_1.x2.msky130_fd_pr__pfet_01v8[id])	current
	102	i(@m.x1.xdiff80_0.xp1_80x1_1.x2.msky130_fd_pr__pfet_01v8[ig])	current dims=0
	103	i(@m.x1.xdiff80_0.xp1_80x1_1.x2.msky130_fd_pr__pfet_01v8[is])	current dims=0
	104	i(@m.x1.xdiff80_0.xp1_80x1_1.x3.msky130_fd_pr__pfet_01v8[ib])	current dims=0
	105	i(@m.x1.xdiff80_0.xp1_80x1_1.x3.msky130_fd_pr__pfet_01v8[id])	current
	106	i(@m.x1.xdiff80_0.xp1_80x1_1.x3.msky130_fd_pr__pfet_01v8[ig])	current dims=0
	107	i(@m.x1.xdiff80_0.xp1_80x1_1.x3.msky130_fd_pr__pfet_01v8[is])	current dims=0
	108	i(@m.x1.xdiff80_0.xp1_80x1_1.x4.msky130_fd_pr__pfet_01v8[ib])	current dims=0
	109	i(@m.x1.xdiff80_0.xp1_80x1_1.x4.msky130_fd_pr__pfet_01v8[id])	current
	110	i(@m.x1.xdiff80_0.xp1_80x1_1.x4.msky130_fd_pr__pfet_01v8[ig])	current dims=0
	111	i(@m.x1.xdiff80_0.xp1_80x1_1.x4.msky130_fd_pr__pfet_01v8[is])	current dims=0
	112	i(@m.x1.xn1x15_diff_pair_0.xn1x15_0.x0.msky130_fd_pr__nfet_01v8[ib])	current dims=0
	113	i(@m.x1.xn1x15_diff_pair_0.xn1x15_0.x0.msky130_fd_pr__nfet_01v8[id])	current
	114	i(@m.x1.xn1x15_diff_pair_0.xn1x15_0.x0.msky130_fd_pr__nfet_01v8[ig])	current dims=0
	115	i(@m.x1.xn1x15_diff_pair_0.xn1x15_0.x0.msky130_fd_pr__nfet_01v8[is])	current dims=0
	116	i(@m.x1.xn1x15_diff_pair_0.xn1x15_0.x1.msky130_fd_pr__nfet_01v8[ib])	current dims=0
	117	i(@m.x1.xn1x15_diff_pair_0.xn1x15_0.x1.msky130_fd_pr__nfet_01v8[id])	current
	118	i(@m.x1.xn1x15_diff_pair_0.xn1x15_0.x1.msky130_fd_pr__nfet_01v8[ig])	current dims=0
	119	i(@m.x1.xn1x15_diff_pair_0.xn1x15_0.x1.msky130_fd_pr__nfet_01v8[is])	current dims=0
	120	i(@m.x1.xn1x15_diff_pair_0.xn1x15_0.x2.msky130_fd_pr__nfet_01v8[ib])	current dims=0
	121	i(@m.x1.xn1x15_diff_pair_0.xn1x15_0.x2.msky130_fd_pr__nfet_01v8[id])	current
	122	i(@m.x1.xn1x15_diff_pair_0.xn1x15_0.x2.msky130_fd_pr__nfet_01v8[ig])	current dims=0
	123	i(@m.x1.xn1x15_diff_pair_0.xn1x15_0.x2.msky130_fd_pr__nfet_01v8[is])	current dims=0
	124	i(@m.x1.xn1x15_diff_pair_0.xn1x15_1.x0.msky130_fd_pr__nfet_01v8[ib])	current dims=0
	125	i(@m.x1.xn1x15_diff_pair_0.xn1x15_1.x0.msky130_fd_pr__nfet_01v8[id])	current
	126	i(@m.x1.xn1x15_diff_pair_0.xn1x15_1.x0.msky130_fd_pr__nfet_01v8[ig])	current dims=0
	127	i(@m.x1.xn1x15_diff_pair_0.xn1x15_1.x0.msky130_fd_pr__nfet_01v8[is])	current dims=0
	128	i(@m.x1.xn1x15_diff_pair_0.xn1x15_1.x1.msky130_fd_pr__nfet_01v8[ib])	current dims=0
	129	i(@m.x1.xn1x15_diff_pair_0.xn1x15_1.x1.msky130_fd_pr__nfet_01v8[id])	current
	130	i(@m.x1.xn1x15_diff_pair_0.xn1x15_1.x1.msky130_fd_pr__nfet_01v8[ig])	current dims=0
	131	i(@m.x1.xn1x15_diff_pair_0.xn1x15_1.x1.msky130_fd_pr__nfet_01v8[is])	current dims=0
	132	i(@m.x1.xn1x15_diff_pair_0.xn1x15_1.x2.msky130_fd_pr__nfet_01v8[ib])	current dims=0
	133	i(@m.x1.xn1x15_diff_pair_0.xn1x15_1.x2.msky130_fd_pr__nfet_01v8[id])	current
	134	i(@m.x1.xn1x15_diff_pair_0.xn1x15_1.x2.msky130_fd_pr__nfet_01v8[ig])	current dims=0
	135	i(@m.x1.xn1x15_diff_pair_0.xn1x15_1.x2.msky130_fd_pr__nfet_01v8[is])	current dims=0
	136	i(@m.x1.xn1x30_diff_pair_0.xn1x30_0.x0.msky130_fd_pr__nfet_01v8[ib])	current dims=0
	137	i(@m.x1.xn1x30_diff_pair_0.xn1x30_0.x0.msky130_fd_pr__nfet_01v8[id])	current
	138	i(@m.x1.xn1x30_diff_pair_0.xn1x30_0.x0.msky130_fd_pr__nfet_01v8[ig])	current dims=0
	139	i(@m.x1.xn1x30_diff_pair_0.xn1x30_0.x0.msky130_fd_pr__nfet_01v8[is])	current dims=0
	140	i(@m.x1.xn1x30_diff_pair_0.xn1x30_0.x1.msky130_fd_pr__nfet_01v8[ib])	current dims=0
	141	i(@m.x1.xn1x30_diff_pair_0.xn1x30_0.x1.msky130_fd_pr__nfet_01v8[id])	current
	142	i(@m.x1.xn1x30_diff_pair_0.xn1x30_0.x1.msky130_fd_pr__nfet_01v8[ig])	current dims=0
	143	i(@m.x1.xn1x30_diff_pair_0.xn1x30_0.x1.msky130_fd_pr__nfet_01v8[is])	current dims=0
	144	i(@m.x1.xn1x30_diff_pair_0.xn1x30_0.x2.msky130_fd_pr__nfet_01v8[ib])	current dims=0
	145	i(@m.x1.xn1x30_diff_pair_0.xn1x30_0.x2.msky130_fd_pr__nfet_01v8[id])	current
	146	i(@m.x1.xn1x30_diff_pair_0.xn1x30_0.x2.msky130_fd_pr__nfet_01v8[ig])	current dims=0
	147	i(@m.x1.xn1x30_diff_pair_0.xn1x30_0.x2.msky130_fd_pr__nfet_01v8[is])	current dims=0
	148	i(@m.x1.xn1x30_diff_pair_0.xn1x30_0.x3.msky130_fd_pr__nfet_01v8[ib])	current dims=0
	149	i(@m.x1.xn1x30_diff_pair_0.xn1x30_0.x3.msky130_fd_pr__nfet_01v8[id])	current
	150	i(@m.x1.xn1x30_diff_pair_0.xn1x30_0.x3.msky130_fd_pr__nfet_01v8[ig])	current dims=0
	151	i(@m.x1.xn1x30_diff_pair_0.xn1x30_0.x3.msky130_fd_pr__nfet_01v8[is])	current dims=0
	152	i(@m.x1.xn1x30_diff_pair_0.xn1x30_0.x4.msky130_fd_pr__nfet_01v8[ib])	current dims=0
	153	i(@m.x1.xn1x30_diff_pair_0.xn1x30_0.x4.msky130_fd_pr__nfet_01v8[id])	current
	154	i(@m.x1.xn1x30_diff_pair_0.xn1x30_0.x4.msky130_fd_pr__nfet_01v8[ig])	current dims=0
	155	i(@m.x1.xn1x30_diff_pair_0.xn1x30_0.x4.msky130_fd_pr__nfet_01v8[is])	current dims=0
	156	i(@m.x1.xn1x30_diff_pair_0.xn1x30_2.x0.msky130_fd_pr__nfet_01v8[ib])	current dims=0
	157	i(@m.x1.xn1x30_diff_pair_0.xn1x30_2.x0.msky130_fd_pr__nfet_01v8[id])	current
	158	i(@m.x1.xn1x30_diff_pair_0.xn1x30_2.x0.msky130_fd_pr__nfet_01v8[ig])	current dims=0
	159	i(@m.x1.xn1x30_diff_pair_0.xn1x30_2.x0.msky130_fd_pr__nfet_01v8[is])	current dims=0
	160	i(@m.x1.xn1x30_diff_pair_0.xn1x30_2.x1.msky130_fd_pr__nfet_01v8[ib])	current dims=0
	161	i(@m.x1.xn1x30_diff_pair_0.xn1x30_2.x1.msky130_fd_pr__nfet_01v8[id])	current
	162	i(@m.x1.xn1x30_diff_pair_0.xn1x30_2.x1.msky130_fd_pr__nfet_01v8[ig])	current dims=0
	163	i(@m.x1.xn1x30_diff_pair_0.xn1x30_2.x1.msky130_fd_pr__nfet_01v8[is])	current dims=0
	164	i(@m.x1.xn1x30_diff_pair_0.xn1x30_2.x2.msky130_fd_pr__nfet_01v8[ib])	current dims=0
	165	i(@m.x1.xn1x30_diff_pair_0.xn1x30_2.x2.msky130_fd_pr__nfet_01v8[id])	current
	166	i(@m.x1.xn1x30_diff_pair_0.xn1x30_2.x2.msky130_fd_pr__nfet_01v8[ig])	current dims=0
	167	i(@m.x1.xn1x30_diff_pair_0.xn1x30_2.x2.msky130_fd_pr__nfet_01v8[is])	current dims=0
	168	i(@m.x1.xn1x30_diff_pair_0.xn1x30_2.x3.msky130_fd_pr__nfet_01v8[ib])	current dims=0
	169	i(@m.x1.xn1x30_diff_pair_0.xn1x30_2.x3.msky130_fd_pr__nfet_01v8[id])	current
	170	i(@m.x1.xn1x30_diff_pair_0.xn1x30_2.x3.msky130_fd_pr__nfet_01v8[ig])	current dims=0
	171	i(@m.x1.xn1x30_diff_pair_0.xn1x30_2.x3.msky130_fd_pr__nfet_01v8[is])	current dims=0
	172	i(@m.x1.xn1x30_diff_pair_0.xn1x30_2.x4.msky130_fd_pr__nfet_01v8[ib])	current dims=0
	173	i(@m.x1.xn1x30_diff_pair_0.xn1x30_2.x4.msky130_fd_pr__nfet_01v8[id])	current
	174	i(@m.x1.xn1x30_diff_pair_0.xn1x30_2.x4.msky130_fd_pr__nfet_01v8[ig])	current dims=0
	175	i(@m.x1.xn1x30_diff_pair_0.xn1x30_2.x4.msky130_fd_pr__nfet_01v8[is])	current dims=0
	176	i(@m.x1.xp1_80x80_0.x0.msky130_fd_pr__pfet_01v8[ib])	current dims=0
	177	i(@m.x1.xp1_80x80_0.x0.msky130_fd_pr__pfet_01v8[id])	current
	178	i(@m.x1.xp1_80x80_0.x0.msky130_fd_pr__pfet_01v8[ig])	current dims=0
	179	i(@m.x1.xp1_80x80_0.x0.msky130_fd_pr__pfet_01v8[is])	current dims=0
	180	i(@m.x1.xp1_80x80_0.x1.msky130_fd_pr__pfet_01v8[ib])	current dims=0
	181	i(@m.x1.xp1_80x80_0.x1.msky130_fd_pr__pfet_01v8[id])	current
	182	i(@m.x1.xp1_80x80_0.x1.msky130_fd_pr__pfet_01v8[ig])	current dims=0
	183	i(@m.x1.xp1_80x80_0.x1.msky130_fd_pr__pfet_01v8[is])	current dims=0
	184	i(@m.x1.xp1_80x80_0.x2.msky130_fd_pr__pfet_01v8[ib])	current dims=0
	185	i(@m.x1.xp1_80x80_0.x2.msky130_fd_pr__pfet_01v8[id])	current
	186	i(@m.x1.xp1_80x80_0.x2.msky130_fd_pr__pfet_01v8[ig])	current dims=0
	187	i(@m.x1.xp1_80x80_0.x2.msky130_fd_pr__pfet_01v8[is])	current dims=0
	188	i(@m.x1.xp1_80x80_0.x3.msky130_fd_pr__pfet_01v8[ib])	current dims=0
	189	i(@m.x1.xp1_80x80_0.x3.msky130_fd_pr__pfet_01v8[id])	current
	190	i(@m.x1.xp1_80x80_0.x3.msky130_fd_pr__pfet_01v8[ig])	current dims=0
	191	i(@m.x1.xp1_80x80_0.x3.msky130_fd_pr__pfet_01v8[is])	current dims=0
	192	i(@m.x1.xp1_80x80_0.x4.msky130_fd_pr__pfet_01v8[ib])	current dims=0
	193	i(@m.x1.xp1_80x80_0.x4.msky130_fd_pr__pfet_01v8[id])	current
	194	i(@m.x1.xp1_80x80_0.x4.msky130_fd_pr__pfet_01v8[ig])	current dims=0
	195	i(@m.x1.xp1_80x80_0.x4.msky130_fd_pr__pfet_01v8[is])	current dims=0
	196	i(@m.x1.xp1_80x80_0.x5.msky130_fd_pr__pfet_01v8[ib])	current dims=0
	197	i(@m.x1.xp1_80x80_0.x5.msky130_fd_pr__pfet_01v8[id])	current
	198	i(@m.x1.xp1_80x80_0.x5.msky130_fd_pr__pfet_01v8[ig])	current dims=0
	199	i(@m.x1.xp1_80x80_0.x5.msky130_fd_pr__pfet_01v8[is])	current dims=0
	200	i(@m.x1.xp1_80x80_0.x6.msky130_fd_pr__pfet_01v8[ib])	current dims=0
	201	i(@m.x1.xp1_80x80_0.x6.msky130_fd_pr__pfet_01v8[id])	current
	202	i(@m.x1.xp1_80x80_0.x6.msky130_fd_pr__pfet_01v8[ig])	current dims=0
	203	i(@m.x1.xp1_80x80_0.x6.msky130_fd_pr__pfet_01v8[is])	current dims=0
	204	i(@m.x1.xp1_80x80_0.x7.msky130_fd_pr__pfet_01v8[ib])	current dims=0
	205	i(@m.x1.xp1_80x80_0.x7.msky130_fd_pr__pfet_01v8[id])	current
	206	i(@m.x1.xp1_80x80_0.x7.msky130_fd_pr__pfet_01v8[ig])	current dims=0
	207	i(@m.x1.xp1_80x80_0.x7.msky130_fd_pr__pfet_01v8[is])	current dims=0
	208	i(@m.x1.xp1_80x80_0.x8.msky130_fd_pr__pfet_01v8[ib])	current dims=0
	209	i(@m.x1.xp1_80x80_0.x8.msky130_fd_pr__pfet_01v8[id])	current
	210	i(@m.x1.xp1_80x80_0.x8.msky130_fd_pr__pfet_01v8[ig])	current dims=0
	211	i(@m.x1.xp1_80x80_0.x8.msky130_fd_pr__pfet_01v8[is])	current dims=0
	212	i(@m.x1.xp1_80x80_0.x9.msky130_fd_pr__pfet_01v8[ib])	current dims=0
	213	i(@m.x1.xp1_80x80_0.x9.msky130_fd_pr__pfet_01v8[id])	current
	214	i(@m.x1.xp1_80x80_0.x9.msky130_fd_pr__pfet_01v8[ig])	current dims=0
	215	i(@m.x1.xp1_80x80_0.x9.msky130_fd_pr__pfet_01v8[is])	current dims=0
	216	i(@m.x1.xp1_80x80_0.x10.msky130_fd_pr__pfet_01v8[ib])	current dims=0
	217	i(@m.x1.xp1_80x80_0.x10.msky130_fd_pr__pfet_01v8[id])	current
	218	i(@m.x1.xp1_80x80_0.x10.msky130_fd_pr__pfet_01v8[ig])	current dims=0
	219	i(@m.x1.xp1_80x80_0.x10.msky130_fd_pr__pfet_01v8[is])	current dims=0
	220	i(@m.x1.xp1_80x80_0.x11.msky130_fd_pr__pfet_01v8[ib])	current dims=0
	221	i(@m.x1.xp1_80x80_0.x11.msky130_fd_pr__pfet_01v8[id])	current
	222	i(@m.x1.xp1_80x80_0.x11.msky130_fd_pr__pfet_01v8[ig])	current dims=0
	223	i(@m.x1.xp1_80x80_0.x11.msky130_fd_pr__pfet_01v8[is])	current dims=0
	224	i(@m.x1.xp1_80x80_0.x12.msky130_fd_pr__pfet_01v8[ib])	current dims=0
	225	i(@m.x1.xp1_80x80_0.x12.msky130_fd_pr__pfet_01v8[id])	current
	226	i(@m.x1.xp1_80x80_0.x12.msky130_fd_pr__pfet_01v8[ig])	current dims=0
	227	i(@m.x1.xp1_80x80_0.x12.msky130_fd_pr__pfet_01v8[is])	current dims=0
	228	i(@m.x1.xp1_80x80_0.x13.msky130_fd_pr__pfet_01v8[ib])	current dims=0
	229	i(@m.x1.xp1_80x80_0.x13.msky130_fd_pr__pfet_01v8[id])	current
	230	i(@m.x1.xp1_80x80_0.x13.msky130_fd_pr__pfet_01v8[ig])	current dims=0
	231	i(@m.x1.xp1_80x80_0.x13.msky130_fd_pr__pfet_01v8[is])	current dims=0
	232	i(@m.x1.xp1_80x80_0.x14.msky130_fd_pr__pfet_01v8[ib])	current dims=0
	233	i(@m.x1.xp1_80x80_0.x14.msky130_fd_pr__pfet_01v8[id])	current
	234	i(@m.x1.xp1_80x80_0.x14.msky130_fd_pr__pfet_01v8[ig])	current dims=0
	235	i(@m.x1.xp1_80x80_0.x14.msky130_fd_pr__pfet_01v8[is])	current dims=0
	236	i(@m.x1.xp1_80x80_0.x15.msky130_fd_pr__pfet_01v8[ib])	current dims=0
	237	i(@m.x1.xp1_80x80_0.x15.msky130_fd_pr__pfet_01v8[id])	current
	238	i(@m.x1.xp1_80x80_0.x15.msky130_fd_pr__pfet_01v8[ig])	current dims=0
	239	i(@m.x1.xp1_80x80_0.x15.msky130_fd_pr__pfet_01v8[is])	current dims=0
	240	i(@m.x1.xp1_80x80_0.x16.msky130_fd_pr__pfet_01v8[ib])	current dims=0
	241	i(@m.x1.xp1_80x80_0.x16.msky130_fd_pr__pfet_01v8[id])	current
	242	i(@m.x1.xp1_80x80_0.x16.msky130_fd_pr__pfet_01v8[ig])	current dims=0
	243	i(@m.x1.xp1_80x80_0.x16.msky130_fd_pr__pfet_01v8[is])	current dims=0
	244	i(@m.x1.xp1_80x80_0.x17.msky130_fd_pr__pfet_01v8[ib])	current dims=0
	245	i(@m.x1.xp1_80x80_0.x17.msky130_fd_pr__pfet_01v8[id])	current
	246	i(@m.x1.xp1_80x80_0.x17.msky130_fd_pr__pfet_01v8[ig])	current dims=0
	247	i(@m.x1.xp1_80x80_0.x17.msky130_fd_pr__pfet_01v8[is])	current dims=0
	248	i(@m.x1.xp1_80x80_0.x18.msky130_fd_pr__pfet_01v8[ib])	current dims=0
	249	i(@m.x1.xp1_80x80_0.x18.msky130_fd_pr__pfet_01v8[id])	current
	250	i(@m.x1.xp1_80x80_0.x18.msky130_fd_pr__pfet_01v8[ig])	current dims=0
	251	i(@m.x1.xp1_80x80_0.x18.msky130_fd_pr__pfet_01v8[is])	current dims=0
	252	i(@m.x1.xp1_80x80_0.x19.msky130_fd_pr__pfet_01v8[ib])	current dims=0
	253	i(@m.x1.xp1_80x80_0.x19.msky130_fd_pr__pfet_01v8[id])	current
	254	i(@m.x1.xp1_80x80_0.x19.msky130_fd_pr__pfet_01v8[ig])	current dims=0
	255	i(@m.x1.xp1_80x80_0.x19.msky130_fd_pr__pfet_01v8[is])	current dims=0
	256	i(@m.x1.xp1_80x80_0.x20.msky130_fd_pr__pfet_01v8[ib])	current dims=0
	257	i(@m.x1.xp1_80x80_0.x20.msky130_fd_pr__pfet_01v8[id])	current
	258	i(@m.x1.xp1_80x80_0.x20.msky130_fd_pr__pfet_01v8[ig])	current dims=0
	259	i(@m.x1.xp1_80x80_0.x20.msky130_fd_pr__pfet_01v8[is])	current dims=0
	260	i(@m.x1.xp1_80x80_0.x21.msky130_fd_pr__pfet_01v8[ib])	current dims=0
	261	i(@m.x1.xp1_80x80_0.x21.msky130_fd_pr__pfet_01v8[id])	current
	262	i(@m.x1.xp1_80x80_0.x21.msky130_fd_pr__pfet_01v8[ig])	current dims=0
	263	i(@m.x1.xp1_80x80_0.x21.msky130_fd_pr__pfet_01v8[is])	current dims=0
	264	i(@m.x1.xp1_80x80_0.x22.msky130_fd_pr__pfet_01v8[ib])	current dims=0
	265	i(@m.x1.xp1_80x80_0.x22.msky130_fd_pr__pfet_01v8[id])	current
	266	i(@m.x1.xp1_80x80_0.x22.msky130_fd_pr__pfet_01v8[ig])	current dims=0
	267	i(@m.x1.xp1_80x80_0.x22.msky130_fd_pr__pfet_01v8[is])	current dims=0
	268	i(@m.x1.xp1_80x80_0.x23.msky130_fd_pr__pfet_01v8[ib])	current dims=0
	269	i(@m.x1.xp1_80x80_0.x23.msky130_fd_pr__pfet_01v8[id])	current
	270	i(@m.x1.xp1_80x80_0.x23.msky130_fd_pr__pfet_01v8[ig])	current dims=0
	271	i(@m.x1.xp1_80x80_0.x23.msky130_fd_pr__pfet_01v8[is])	current dims=0
	272	i(@m.x1.xp1_80x80_0.x24.msky130_fd_pr__pfet_01v8[ib])	current dims=0
	273	i(@m.x1.xp1_80x80_0.x24.msky130_fd_pr__pfet_01v8[id])	current
	274	i(@m.x1.xp1_80x80_0.x24.msky130_fd_pr__pfet_01v8[ig])	current dims=0
	275	i(@m.x1.xp1_80x80_0.x24.msky130_fd_pr__pfet_01v8[is])	current dims=0
	276	i(@m.x1.xp1_80x80_0.x25.msky130_fd_pr__pfet_01v8[ib])	current dims=0
	277	i(@m.x1.xp1_80x80_0.x25.msky130_fd_pr__pfet_01v8[id])	current
	278	i(@m.x1.xp1_80x80_0.x25.msky130_fd_pr__pfet_01v8[ig])	current dims=0
	279	i(@m.x1.xp1_80x80_0.x25.msky130_fd_pr__pfet_01v8[is])	current dims=0
	280	i(@m.x1.xp1_80x80_0.x26.msky130_fd_pr__pfet_01v8[ib])	current dims=0
	281	i(@m.x1.xp1_80x80_0.x26.msky130_fd_pr__pfet_01v8[id])	current
	282	i(@m.x1.xp1_80x80_0.x26.msky130_fd_pr__pfet_01v8[ig])	current dims=0
	283	i(@m.x1.xp1_80x80_0.x26.msky130_fd_pr__pfet_01v8[is])	current dims=0
	284	i(@m.x1.xp1_80x80_0.x27.msky130_fd_pr__pfet_01v8[ib])	current dims=0
	285	i(@m.x1.xp1_80x80_0.x27.msky130_fd_pr__pfet_01v8[id])	current
	286	i(@m.x1.xp1_80x80_0.x27.msky130_fd_pr__pfet_01v8[ig])	current dims=0
	287	i(@m.x1.xp1_80x80_0.x27.msky130_fd_pr__pfet_01v8[is])	current dims=0
	288	i(@m.x1.xp1_80x80_0.x28.msky130_fd_pr__pfet_01v8[ib])	current dims=0
	289	i(@m.x1.xp1_80x80_0.x28.msky130_fd_pr__pfet_01v8[id])	current
	290	i(@m.x1.xp1_80x80_0.x28.msky130_fd_pr__pfet_01v8[ig])	current dims=0
	291	i(@m.x1.xp1_80x80_0.x28.msky130_fd_pr__pfet_01v8[is])	current dims=0
	292	i(@m.x1.xp1_80x80_0.x29.msky130_fd_pr__pfet_01v8[ib])	current dims=0
	293	i(@m.x1.xp1_80x80_0.x29.msky130_fd_pr__pfet_01v8[id])	current
	294	i(@m.x1.xp1_80x80_0.x29.msky130_fd_pr__pfet_01v8[ig])	current dims=0
	295	i(@m.x1.xp1_80x80_0.x29.msky130_fd_pr__pfet_01v8[is])	current dims=0
	296	i(@m.x1.xp1_80x80_0.x30.msky130_fd_pr__pfet_01v8[ib])	current dims=0
	297	i(@m.x1.xp1_80x80_0.x30.msky130_fd_pr__pfet_01v8[id])	current
	298	i(@m.x1.xp1_80x80_0.x30.msky130_fd_pr__pfet_01v8[ig])	current dims=0
	299	i(@m.x1.xp1_80x80_0.x30.msky130_fd_pr__pfet_01v8[is])	current dims=0
	300	i(@m.x1.xp1_80x80_0.x31.msky130_fd_pr__pfet_01v8[ib])	current dims=0
	301	i(@m.x1.xp1_80x80_0.x31.msky130_fd_pr__pfet_01v8[id])	current
	302	i(@m.x1.xp1_80x80_0.x31.msky130_fd_pr__pfet_01v8[ig])	current dims=0
	303	i(@m.x1.xp1_80x80_0.x31.msky130_fd_pr__pfet_01v8[is])	current dims=0
	304	i(@m.x1.xp1_80x80_0.x32.msky130_fd_pr__pfet_01v8[ib])	current dims=0
	305	i(@m.x1.xp1_80x80_0.x32.msky130_fd_pr__pfet_01v8[id])	current
	306	i(@m.x1.xp1_80x80_0.x32.msky130_fd_pr__pfet_01v8[ig])	current dims=0
	307	i(@m.x1.xp1_80x80_0.x32.msky130_fd_pr__pfet_01v8[is])	current dims=0
	308	i(@m.x1.xp1_80x80_0.x33.msky130_fd_pr__pfet_01v8[ib])	current dims=0
	309	i(@m.x1.xp1_80x80_0.x33.msky130_fd_pr__pfet_01v8[id])	current
	310	i(@m.x1.xp1_80x80_0.x33.msky130_fd_pr__pfet_01v8[ig])	current dims=0
	311	i(@m.x1.xp1_80x80_0.x33.msky130_fd_pr__pfet_01v8[is])	current dims=0
	312	i(@m.x1.xp1_80x80_0.x34.msky130_fd_pr__pfet_01v8[ib])	current dims=0
	313	i(@m.x1.xp1_80x80_0.x34.msky130_fd_pr__pfet_01v8[id])	current
	314	i(@m.x1.xp1_80x80_0.x34.msky130_fd_pr__pfet_01v8[ig])	current dims=0
	315	i(@m.x1.xp1_80x80_0.x34.msky130_fd_pr__pfet_01v8[is])	current dims=0
	316	i(@m.x1.xp1_80x80_0.x35.msky130_fd_pr__pfet_01v8[ib])	current dims=0
	317	i(@m.x1.xp1_80x80_0.x35.msky130_fd_pr__pfet_01v8[id])	current
	318	i(@m.x1.xp1_80x80_0.x35.msky130_fd_pr__pfet_01v8[ig])	current dims=0
	319	i(@m.x1.xp1_80x80_0.x35.msky130_fd_pr__pfet_01v8[is])	current dims=0
	320	i(@m.x1.xp1_80x80_0.x36.msky130_fd_pr__pfet_01v8[ib])	current dims=0
	321	i(@m.x1.xp1_80x80_0.x36.msky130_fd_pr__pfet_01v8[id])	current
	322	i(@m.x1.xp1_80x80_0.x36.msky130_fd_pr__pfet_01v8[ig])	current dims=0
	323	i(@m.x1.xp1_80x80_0.x36.msky130_fd_pr__pfet_01v8[is])	current dims=0
	324	i(@m.x1.xp1_80x80_0.x37.msky130_fd_pr__pfet_01v8[ib])	current dims=0
	325	i(@m.x1.xp1_80x80_0.x37.msky130_fd_pr__pfet_01v8[id])	current
	326	i(@m.x1.xp1_80x80_0.x37.msky130_fd_pr__pfet_01v8[ig])	current dims=0
	327	i(@m.x1.xp1_80x80_0.x37.msky130_fd_pr__pfet_01v8[is])	current dims=0
	328	i(@m.x1.xp1_80x80_0.x38.msky130_fd_pr__pfet_01v8[ib])	current dims=0
	329	i(@m.x1.xp1_80x80_0.x38.msky130_fd_pr__pfet_01v8[id])	current
	330	i(@m.x1.xp1_80x80_0.x38.msky130_fd_pr__pfet_01v8[ig])	current dims=0
	331	i(@m.x1.xp1_80x80_0.x38.msky130_fd_pr__pfet_01v8[is])	current dims=0
	332	i(@m.x1.xp1_80x80_0.x39.msky130_fd_pr__pfet_01v8[ib])	current dims=0
	333	i(@m.x1.xp1_80x80_0.x39.msky130_fd_pr__pfet_01v8[id])	current
	334	i(@m.x1.xp1_80x80_0.x39.msky130_fd_pr__pfet_01v8[ig])	current dims=0
	335	i(@m.x1.xp1_80x80_0.x39.msky130_fd_pr__pfet_01v8[is])	current dims=0
	336	i(@m.x1.xp1_80x80_0.x40.msky130_fd_pr__pfet_01v8[ib])	current dims=0
	337	i(@m.x1.xp1_80x80_0.x40.msky130_fd_pr__pfet_01v8[id])	current
	338	i(@m.x1.xp1_80x80_0.x40.msky130_fd_pr__pfet_01v8[ig])	current dims=0
	339	i(@m.x1.xp1_80x80_0.x40.msky130_fd_pr__pfet_01v8[is])	current dims=0
	340	i(@m.x1.xp1_80x80_0.x41.msky130_fd_pr__pfet_01v8[ib])	current dims=0
	341	i(@m.x1.xp1_80x80_0.x41.msky130_fd_pr__pfet_01v8[id])	current
	342	i(@m.x1.xp1_80x80_0.x41.msky130_fd_pr__pfet_01v8[ig])	current dims=0
	343	i(@m.x1.xp1_80x80_0.x41.msky130_fd_pr__pfet_01v8[is])	current dims=0
	344	i(@m.x1.xp1_80x80_0.x42.msky130_fd_pr__pfet_01v8[ib])	current dims=0
	345	i(@m.x1.xp1_80x80_0.x42.msky130_fd_pr__pfet_01v8[id])	current
	346	i(@m.x1.xp1_80x80_0.x42.msky130_fd_pr__pfet_01v8[ig])	current dims=0
	347	i(@m.x1.xp1_80x80_0.x42.msky130_fd_pr__pfet_01v8[is])	current dims=0
	348	i(@m.x1.xp1_80x80_0.x43.msky130_fd_pr__pfet_01v8[ib])	current dims=0
	349	i(@m.x1.xp1_80x80_0.x43.msky130_fd_pr__pfet_01v8[id])	current
	350	i(@m.x1.xp1_80x80_0.x43.msky130_fd_pr__pfet_01v8[ig])	current dims=0
	351	i(@m.x1.xp1_80x80_0.x43.msky130_fd_pr__pfet_01v8[is])	current dims=0
	352	i(@m.x1.xp1_80x80_0.x44.msky130_fd_pr__pfet_01v8[ib])	current dims=0
	353	i(@m.x1.xp1_80x80_0.x44.msky130_fd_pr__pfet_01v8[id])	current
	354	i(@m.x1.xp1_80x80_0.x44.msky130_fd_pr__pfet_01v8[ig])	current dims=0
	355	i(@m.x1.xp1_80x80_0.x44.msky130_fd_pr__pfet_01v8[is])	current dims=0
	356	i(@m.x1.xp1_80x80_0.x45.msky130_fd_pr__pfet_01v8[ib])	current dims=0
	357	i(@m.x1.xp1_80x80_0.x45.msky130_fd_pr__pfet_01v8[id])	current
	358	i(@m.x1.xp1_80x80_0.x45.msky130_fd_pr__pfet_01v8[ig])	current dims=0
	359	i(@m.x1.xp1_80x80_0.x45.msky130_fd_pr__pfet_01v8[is])	current dims=0
	360	i(@m.x1.xp1_80x80_0.x46.msky130_fd_pr__pfet_01v8[ib])	current dims=0
	361	i(@m.x1.xp1_80x80_0.x46.msky130_fd_pr__pfet_01v8[id])	current
	362	i(@m.x1.xp1_80x80_0.x46.msky130_fd_pr__pfet_01v8[ig])	current dims=0
	363	i(@m.x1.xp1_80x80_0.x46.msky130_fd_pr__pfet_01v8[is])	current dims=0
	364	i(@m.x1.xp1_80x80_0.x47.msky130_fd_pr__pfet_01v8[ib])	current dims=0
	365	i(@m.x1.xp1_80x80_0.x47.msky130_fd_pr__pfet_01v8[id])	current
	366	i(@m.x1.xp1_80x80_0.x47.msky130_fd_pr__pfet_01v8[ig])	current dims=0
	367	i(@m.x1.xp1_80x80_0.x47.msky130_fd_pr__pfet_01v8[is])	current dims=0
	368	i(@m.x1.xp1_80x80_0.x48.msky130_fd_pr__pfet_01v8[ib])	current dims=0
	369	i(@m.x1.xp1_80x80_0.x48.msky130_fd_pr__pfet_01v8[id])	current
	370	i(@m.x1.xp1_80x80_0.x48.msky130_fd_pr__pfet_01v8[ig])	current dims=0
	371	i(@m.x1.xp1_80x80_0.x48.msky130_fd_pr__pfet_01v8[is])	current dims=0
	372	i(@m.x1.xp1_80x80_0.x49.msky130_fd_pr__pfet_01v8[ib])	current dims=0
	373	i(@m.x1.xp1_80x80_0.x49.msky130_fd_pr__pfet_01v8[id])	current
	374	i(@m.x1.xp1_80x80_0.x49.msky130_fd_pr__pfet_01v8[ig])	current dims=0
	375	i(@m.x1.xp1_80x80_0.x49.msky130_fd_pr__pfet_01v8[is])	current dims=0
	376	i(@m.x1.xp1_80x80_0.x50.msky130_fd_pr__pfet_01v8[ib])	current dims=0
	377	i(@m.x1.xp1_80x80_0.x50.msky130_fd_pr__pfet_01v8[id])	current
	378	i(@m.x1.xp1_80x80_0.x50.msky130_fd_pr__pfet_01v8[ig])	current dims=0
	379	i(@m.x1.xp1_80x80_0.x50.msky130_fd_pr__pfet_01v8[is])	current dims=0
	380	i(@m.x1.xp1_80x80_0.x51.msky130_fd_pr__pfet_01v8[ib])	current dims=0
	381	i(@m.x1.xp1_80x80_0.x51.msky130_fd_pr__pfet_01v8[id])	current
	382	i(@m.x1.xp1_80x80_0.x51.msky130_fd_pr__pfet_01v8[ig])	current dims=0
	383	i(@m.x1.xp1_80x80_0.x51.msky130_fd_pr__pfet_01v8[is])	current dims=0
	384	i(@m.x1.xp1_80x80_0.x52.msky130_fd_pr__pfet_01v8[ib])	current dims=0
	385	i(@m.x1.xp1_80x80_0.x52.msky130_fd_pr__pfet_01v8[id])	current
	386	i(@m.x1.xp1_80x80_0.x52.msky130_fd_pr__pfet_01v8[ig])	current dims=0
	387	i(@m.x1.xp1_80x80_0.x52.msky130_fd_pr__pfet_01v8[is])	current dims=0
	388	i(@m.x1.xp1_80x80_0.x53.msky130_fd_pr__pfet_01v8[ib])	current dims=0
	389	i(@m.x1.xp1_80x80_0.x53.msky130_fd_pr__pfet_01v8[id])	current
	390	i(@m.x1.xp1_80x80_0.x53.msky130_fd_pr__pfet_01v8[ig])	current dims=0
	391	i(@m.x1.xp1_80x80_0.x53.msky130_fd_pr__pfet_01v8[is])	current dims=0
	392	i(@m.x1.xp1_80x80_0.x54.msky130_fd_pr__pfet_01v8[ib])	current dims=0
	393	i(@m.x1.xp1_80x80_0.x54.msky130_fd_pr__pfet_01v8[id])	current
	394	i(@m.x1.xp1_80x80_0.x54.msky130_fd_pr__pfet_01v8[ig])	current dims=0
	395	i(@m.x1.xp1_80x80_0.x54.msky130_fd_pr__pfet_01v8[is])	current dims=0
	396	i(@m.x1.xp1_80x80_0.x55.msky130_fd_pr__pfet_01v8[ib])	current dims=0
	397	i(@m.x1.xp1_80x80_0.x55.msky130_fd_pr__pfet_01v8[id])	current
	398	i(@m.x1.xp1_80x80_0.x55.msky130_fd_pr__pfet_01v8[ig])	current dims=0
	399	i(@m.x1.xp1_80x80_0.x55.msky130_fd_pr__pfet_01v8[is])	current dims=0
	400	i(@m.x1.xp1_80x80_0.x56.msky130_fd_pr__pfet_01v8[ib])	current dims=0
	401	i(@m.x1.xp1_80x80_0.x56.msky130_fd_pr__pfet_01v8[id])	current
	402	i(@m.x1.xp1_80x80_0.x56.msky130_fd_pr__pfet_01v8[ig])	current dims=0
	403	i(@m.x1.xp1_80x80_0.x56.msky130_fd_pr__pfet_01v8[is])	current dims=0
	404	i(@m.x1.xp1_80x80_0.x57.msky130_fd_pr__pfet_01v8[ib])	current dims=0
	405	i(@m.x1.xp1_80x80_0.x57.msky130_fd_pr__pfet_01v8[id])	current
	406	i(@m.x1.xp1_80x80_0.x57.msky130_fd_pr__pfet_01v8[ig])	current dims=0
	407	i(@m.x1.xp1_80x80_0.x57.msky130_fd_pr__pfet_01v8[is])	current dims=0
	408	i(@m.x1.xp1_80x80_0.x58.msky130_fd_pr__pfet_01v8[ib])	current dims=0
	409	i(@m.x1.xp1_80x80_0.x58.msky130_fd_pr__pfet_01v8[id])	current
	410	i(@m.x1.xp1_80x80_0.x58.msky130_fd_pr__pfet_01v8[ig])	current dims=0
	411	i(@m.x1.xp1_80x80_0.x58.msky130_fd_pr__pfet_01v8[is])	current dims=0