Title: ** sch_path: /home/renslow/documents/ece5120/project/mag/top _level_tb.sch
Date: Fri Nov 29 16:41:34  2024
Plotname: Operating Point
Flags: real
No. Variables: 2200
No. Points: 1
Variables:
	0	v(vs1)	voltage
	1	i(@b.x6.xbandgap_0.xsky130_fd_pr__res_xhigh_po_5p73_g7v36e_0.x0.xsky130_fd_pr__res_xhigh_po_5p73.brbody[i])	current
	2	i(@b.x6.xbandgap_0.xsky130_fd_pr__res_xhigh_po_5p73_g7v36e_0.x0.xsky130_fd_pr__res_xhigh_po_5p73.brend[i])	current
	3	i(@b.x6.xbandgap_0.xsky130_fd_pr__res_xhigh_po_5p73_j2m2gk_0.x0.xsky130_fd_pr__res_xhigh_po_5p73.brbody[i])	current
	4	i(@b.x6.xbandgap_0.xsky130_fd_pr__res_xhigh_po_5p73_j2m2gk_0.x0.xsky130_fd_pr__res_xhigh_po_5p73.brend[i])	current
	5	i(@b.x6.xbandgap_0.xsky130_fd_pr__res_xhigh_po_5p73_j2m2gk_1.x0.xsky130_fd_pr__res_xhigh_po_5p73.brbody[i])	current
	6	i(@b.x6.xbandgap_0.xsky130_fd_pr__res_xhigh_po_5p73_j2m2gk_1.x0.xsky130_fd_pr__res_xhigh_po_5p73.brend[i])	current
	7	i(@b.x6.xbandgap_0.xsky130_fd_pr__res_xhigh_po_5p73_j2myfk_0.x0.xsky130_fd_pr__res_xhigh_po_5p73.brbody[i])	current
	8	i(@b.x6.xbandgap_0.xsky130_fd_pr__res_xhigh_po_5p73_j2myfk_0.x0.xsky130_fd_pr__res_xhigh_po_5p73.brend[i])	current
	9	i(@b.x6.xbandgap_0.xsky130_fd_pr__res_xhigh_po_5p73_j2myfk_1.x0.xsky130_fd_pr__res_xhigh_po_5p73.brbody[i])	current
	10	i(@b.x6.xbandgap_0.xsky130_fd_pr__res_xhigh_po_5p73_j2myfk_1.x0.xsky130_fd_pr__res_xhigh_po_5p73.brend[i])	current
	11	i(@b.x6.xdemod_0.xsky130_fd_pr__res_xhigh_po_0p35_v22kjh_0.x0.xsky130_fd_pr__res_xhigh_po_0p35.brbody[i])	current
	12	i(@b.x6.xdemod_0.xsky130_fd_pr__res_xhigh_po_0p35_v22kjh_0.x0.xsky130_fd_pr__res_xhigh_po_0p35.brend[i])	current
	13	i(@b.x6.xdemod_0.xsky130_fd_pr__res_xhigh_po_0p35_v22kjh_1.x0.xsky130_fd_pr__res_xhigh_po_0p35.brbody[i])	current
	14	i(@b.x6.xdemod_0.xsky130_fd_pr__res_xhigh_po_0p35_v22kjh_1.x0.xsky130_fd_pr__res_xhigh_po_0p35.brend[i])	current
	15	i(@b.x6.xdemod_0.xsky130_fd_pr__res_xhigh_po_0p35_y6f53n_0.x0.xsky130_fd_pr__res_xhigh_po_0p35.brbody[i])	current
	16	i(@b.x6.xdemod_0.xsky130_fd_pr__res_xhigh_po_0p35_y6f53n_0.x0.xsky130_fd_pr__res_xhigh_po_0p35.brend[i])	current
	17	i(@b.x6.xdemod_0.xsky130_fd_pr__res_xhigh_po_0p35_y6f53n_1.x0.xsky130_fd_pr__res_xhigh_po_0p35.brbody[i])	current
	18	i(@b.x6.xdemod_0.xsky130_fd_pr__res_xhigh_po_0p35_y6f53n_1.x0.xsky130_fd_pr__res_xhigh_po_0p35.brend[i])	current
	19	i(@b.x6.xgill_cell_0.xif_res_0.x0.xsky130_fd_pr__res_xhigh_po_0p69.brbody[i])	current
	20	i(@b.x6.xgill_cell_0.xif_res_0.x0.xsky130_fd_pr__res_xhigh_po_0p69.brend[i])	current
	21	i(@b.x6.xgill_cell_0.xif_res_1.x0.xsky130_fd_pr__res_xhigh_po_0p69.brbody[i])	current
	22	i(@b.x6.xgill_cell_0.xif_res_1.x0.xsky130_fd_pr__res_xhigh_po_0p69.brend[i])	current
	23	i(@b.x6.xgill_cell_0.xlop_resistor_0.xsky130_fd_pr__res_xhigh_po_0p69_p8uvge_0.x0.xsky130_fd_pr__res_xhigh_po_0p69.brbody[i])	current
	24	i(@b.x6.xgill_cell_0.xlop_resistor_0.xsky130_fd_pr__res_xhigh_po_0p69_p8uvge_0.x0.xsky130_fd_pr__res_xhigh_po_0p69.brend[i])	current
	25	i(@b.x6.xgill_cell_0.xlop_resistor_0.xsky130_fd_pr__res_xhigh_po_0p69_z9gmgv_0.x0.xsky130_fd_pr__res_xhigh_po_0p69.brbody[i])	current
	26	i(@b.x6.xgill_cell_0.xlop_resistor_0.xsky130_fd_pr__res_xhigh_po_0p69_z9gmgv_0.x0.xsky130_fd_pr__res_xhigh_po_0p69.brend[i])	current
	27	i(@b.x6.xgill_cell_0.xlop_resistor_1.xsky130_fd_pr__res_xhigh_po_0p69_p8uvge_0.x0.xsky130_fd_pr__res_xhigh_po_0p69.brbody[i])	current
	28	i(@b.x6.xgill_cell_0.xlop_resistor_1.xsky130_fd_pr__res_xhigh_po_0p69_p8uvge_0.x0.xsky130_fd_pr__res_xhigh_po_0p69.brend[i])	current
	29	i(@b.x6.xgill_cell_0.xlop_resistor_1.xsky130_fd_pr__res_xhigh_po_0p69_z9gmgv_0.x0.xsky130_fd_pr__res_xhigh_po_0p69.brbody[i])	current
	30	i(@b.x6.xgill_cell_0.xlop_resistor_1.xsky130_fd_pr__res_xhigh_po_0p69_z9gmgv_0.x0.xsky130_fd_pr__res_xhigh_po_0p69.brend[i])	current
	31	i(@b.x6.xgill_cell_0.xvdd_res_0.xsky130_fd_pr__res_xhigh_po_0p69_lzxzx3_0.x0.xsky130_fd_pr__res_xhigh_po_0p69.brbody[i])	current
	32	i(@b.x6.xgill_cell_0.xvdd_res_0.xsky130_fd_pr__res_xhigh_po_0p69_lzxzx3_0.x0.xsky130_fd_pr__res_xhigh_po_0p69.brend[i])	current
	33	i(@b.x6.xgill_cell_0.xvdd_res_1.xsky130_fd_pr__res_xhigh_po_0p69_lzxzx3_0.x0.xsky130_fd_pr__res_xhigh_po_0p69.brbody[i])	current
	34	i(@b.x6.xgill_cell_0.xvdd_res_1.xsky130_fd_pr__res_xhigh_po_0p69_lzxzx3_0.x0.xsky130_fd_pr__res_xhigh_po_0p69.brend[i])	current
	35	i(@b.x6.xlna_0.xsky130_fd_pr__res_xhigh_po_0p35_bb2zh9_0.x0.xsky130_fd_pr__res_xhigh_po_0p35.brbody[i])	current
	36	i(@b.x6.xlna_0.xsky130_fd_pr__res_xhigh_po_0p35_bb2zh9_0.x0.xsky130_fd_pr__res_xhigh_po_0p35.brend[i])	current
	37	i(@b.x6.xlna_0.xsky130_fd_pr__res_xhigh_po_5p73_7d764l_0.x0.xsky130_fd_pr__res_xhigh_po_5p73.brbody[i])	current
	38	i(@b.x6.xlna_0.xsky130_fd_pr__res_xhigh_po_5p73_7d764l_0.x0.xsky130_fd_pr__res_xhigh_po_5p73.brend[i])	current
	39	i(@b.x6.xlna_0.xsky130_fd_pr__res_xhigh_po_5p73_f3ynpn_0.x0.xsky130_fd_pr__res_xhigh_po_5p73.brbody[i])	current
	40	i(@b.x6.xlna_0.xsky130_fd_pr__res_xhigh_po_5p73_f3ynpn_0.x0.xsky130_fd_pr__res_xhigh_po_5p73.brend[i])	current
	41	i(@b.x6.xlna_0.xsky130_fd_pr__res_xhigh_po_5p73_g7vz5e_0.x0.xsky130_fd_pr__res_xhigh_po_5p73.brbody[i])	current
	42	i(@b.x6.xlna_0.xsky130_fd_pr__res_xhigh_po_5p73_g7vz5e_0.x0.xsky130_fd_pr__res_xhigh_po_5p73.brend[i])	current
	43	i(@c.x3.c0[i])	current
	44	i(@c.x3.c1[i])	current
	45	i(@c.x3.c2[i])	current
	46	i(@c.x3.c3[i])	current
	47	i(@c.x3.c4[i])	current
	48	i(@c.x3.c5[i])	current
	49	i(@c.x3.c6[i])	current
	50	i(@c.x3.c7[i])	current
	51	i(@c.x3.c8[i])	current
	52	i(@c.x3.c9[i])	current
	53	i(@c.x3.c10[i])	current
	54	i(@c.x3.c11[i])	current
	55	i(@c.x6.c0[i])	current
	56	i(@c.x6.c1[i])	current
	57	i(@c.x6.c2[i])	current
	58	i(@c.x6.c3[i])	current
	59	i(@c.x6.c4[i])	current
	60	i(@c.x6.c5[i])	current
	61	i(@c.x6.c6[i])	current
	62	i(@c.x6.c7[i])	current
	63	i(@c.x6.c8[i])	current
	64	i(@c.x6.c9[i])	current
	65	i(@c.x6.c10[i])	current
	66	i(@c.x6.c11[i])	current
	67	i(@c.x6.c12[i])	current
	68	i(@c.x6.c14[i])	current
	69	i(@c.x6.c15[i])	current
	70	i(@c.x6.c16[i])	current
	71	i(@c.x6.c17[i])	current
	72	i(@c.x6.c18[i])	current
	73	i(@c.x6.c19[i])	current
	74	i(@c.x6.c20[i])	current
	75	i(@c.x6.c21[i])	current
	76	i(@c.x6.c22[i])	current
	77	i(@c.x6.c23[i])	current
	78	i(@c.x6.c24[i])	current
	79	i(@c.x6.c25[i])	current
	80	i(@c.x6.c26[i])	current
	81	i(@c.x6.c27[i])	current
	82	i(@c.x6.c28[i])	current
	83	i(@c.x6.c29[i])	current
	84	i(@c.x6.c30[i])	current
	85	i(@c.x6.c31[i])	current
	86	i(@c.x6.c32[i])	current
	87	i(@c.x6.c33[i])	current
	88	i(@c.x6.c34[i])	current
	89	i(@c.x6.c35[i])	current
	90	i(@c.x6.c36[i])	current
	91	i(@c.x6.xbandgap_0.c0[i])	current
	92	i(@c.x6.xbandgap_0.c1[i])	current
	93	i(@c.x6.xbandgap_0.c2[i])	current
	94	i(@c.x6.xbandgap_0.c3[i])	current
	95	i(@c.x6.xbandgap_0.c4[i])	current
	96	i(@c.x6.xbandgap_0.c5[i])	current
	97	i(@c.x6.xbandgap_0.c6[i])	current
	98	i(@c.x6.xbandgap_0.c7[i])	current
	99	i(@c.x6.xbandgap_0.c8[i])	current
	100	i(@c.x6.xbandgap_0.c9[i])	current
	101	i(@c.x6.xbandgap_0.c10[i])	current
	102	i(@c.x6.xbandgap_0.c11[i])	current
	103	i(@c.x6.xbandgap_0.c12[i])	current
	104	i(@c.x6.xbandgap_0.c13[i])	current
	105	i(@c.x6.xbandgap_0.c14[i])	current
	106	i(@c.x6.xbandgap_0.c15[i])	current
	107	i(@c.x6.xbandgap_0.xdiff_pair_0.c0[i])	current
	108	i(@c.x6.xbandgap_0.xdiff_pair_0.c1[i])	current
	109	i(@c.x6.xbandgap_0.xdiff_pair_0.c2[i])	current
	110	i(@c.x6.xbandgap_0.xdiff_pair_0.xn20x1_1.c0[i])	current
	111	i(@c.x6.xbandgap_0.xdiff_pair_0.xn20x1_2.c0[i])	current
	112	i(@c.x6.xbandgap_0.xdiff_pair_0.xp20x1_0.c0[i])	current
	113	i(@c.x6.xbandgap_0.xdiff_pair_0.xp20x1_1.c0[i])	current
	114	i(@c.x6.xbandgap_0.xn20x1_0.c0[i])	current
	115	i(@c.x6.xbandgap_0.xn20x1_1.c0[i])	current
	116	i(@c.x6.xbandgap_0.xp20x05_0.c0[i])	current
	117	i(@c.x6.xbandgap_0.xsky130_fd_pr__nfet_01v8_n7yw8t_0.c0[i])	current
	118	i(@c.x6.xbandgap_0.xsky130_fd_pr__nfet_01v8_n7yw8t_1.c0[i])	current
	119	i(@c.x6.xbandgap_0.xsky130_fd_pr__res_xhigh_po_5p73_g7v36e_0.x0.xsky130_fd_pr__res_xhigh_po_5p73.c1[i])	current
	120	i(@c.x6.xbandgap_0.xsky130_fd_pr__res_xhigh_po_5p73_g7v36e_0.x0.xsky130_fd_pr__res_xhigh_po_5p73.c2[i])	current
	121	i(@c.x6.xbandgap_0.xsky130_fd_pr__res_xhigh_po_5p73_j2m2gk_0.x0.xsky130_fd_pr__res_xhigh_po_5p73.c1[i])	current
	122	i(@c.x6.xbandgap_0.xsky130_fd_pr__res_xhigh_po_5p73_j2m2gk_0.x0.xsky130_fd_pr__res_xhigh_po_5p73.c2[i])	current
	123	i(@c.x6.xbandgap_0.xsky130_fd_pr__res_xhigh_po_5p73_j2m2gk_1.x0.xsky130_fd_pr__res_xhigh_po_5p73.c1[i])	current
	124	i(@c.x6.xbandgap_0.xsky130_fd_pr__res_xhigh_po_5p73_j2m2gk_1.x0.xsky130_fd_pr__res_xhigh_po_5p73.c2[i])	current
	125	i(@c.x6.xbandgap_0.xsky130_fd_pr__res_xhigh_po_5p73_j2myfk_0.x0.xsky130_fd_pr__res_xhigh_po_5p73.c1[i])	current
	126	i(@c.x6.xbandgap_0.xsky130_fd_pr__res_xhigh_po_5p73_j2myfk_0.x0.xsky130_fd_pr__res_xhigh_po_5p73.c2[i])	current
	127	i(@c.x6.xbandgap_0.xsky130_fd_pr__res_xhigh_po_5p73_j2myfk_1.x0.xsky130_fd_pr__res_xhigh_po_5p73.c1[i])	current
	128	i(@c.x6.xbandgap_0.xsky130_fd_pr__res_xhigh_po_5p73_j2myfk_1.x0.xsky130_fd_pr__res_xhigh_po_5p73.c2[i])	current
	129	i(@c.x6.xdemod_0.c0[i])	current
	130	i(@c.x6.xdemod_0.c1[i])	current
	131	i(@c.x6.xdemod_0.c2[i])	current
	132	i(@c.x6.xdemod_0.c3[i])	current
	133	i(@c.x6.xdemod_0.c4[i])	current
	134	i(@c.x6.xdemod_0.c5[i])	current
	135	i(@c.x6.xdemod_0.c6[i])	current
	136	i(@c.x6.xdemod_0.c8[i])	current
	137	i(@c.x6.xdemod_0.c9[i])	current
	138	i(@c.x6.xdemod_0.c10[i])	current
	139	i(@c.x6.xdemod_0.c11[i])	current
	140	i(@c.x6.xdemod_0.c12[i])	current
	141	i(@c.x6.xdemod_0.c13[i])	current
	142	i(@c.x6.xdemod_0.c14[i])	current
	143	i(@c.x6.xdemod_0.c15[i])	current
	144	i(@c.x6.xdemod_0.c16[i])	current
	145	i(@c.x6.xdemod_0.xdiff80_0.c0[i])	current
	146	i(@c.x6.xdemod_0.xdiff80_0.xp1_80x1_0.c0[i])	current
	147	i(@c.x6.xdemod_0.xdiff80_0.xp1_80x1_0.c1[i])	current
	148	i(@c.x6.xdemod_0.xdiff80_0.xp1_80x1_1.c0[i])	current
	149	i(@c.x6.xdemod_0.xdiff80_0.xp1_80x1_1.c1[i])	current
	150	i(@c.x6.xdemod_0.xn1x15_diff_pair_0.c0[i])	current
	151	i(@c.x6.xdemod_0.xn1x15_diff_pair_0.c1[i])	current
	152	i(@c.x6.xdemod_0.xn1x15_diff_pair_0.xn1x15_0.c0[i])	current
	153	i(@c.x6.xdemod_0.xn1x15_diff_pair_0.xn1x15_1.c0[i])	current
	154	i(@c.x6.xdemod_0.xn1x30_diff_pair_0.c0[i])	current
	155	i(@c.x6.xdemod_0.xn1x30_diff_pair_0.c1[i])	current
	156	i(@c.x6.xdemod_0.xn1x30_diff_pair_0.xn1x30_0.c0[i])	current
	157	i(@c.x6.xdemod_0.xn1x30_diff_pair_0.xn1x30_0.c1[i])	current
	158	i(@c.x6.xdemod_0.xn1x30_diff_pair_0.xn1x30_2.c0[i])	current
	159	i(@c.x6.xdemod_0.xn1x30_diff_pair_0.xn1x30_2.c1[i])	current
	160	i(@c.x6.xdemod_0.xp1_80x80_0.c0[i])	current
	161	i(@c.x6.xdemod_0.xp1_80x80_0.c1[i])	current
	162	i(@c.x6.xdemod_0.xp1_80x80_0.c2[i])	current
	163	i(@c.x6.xdemod_0.xp1_80x80_0.c3[i])	current
	164	i(@c.x6.xdemod_0.xp1_80x80_0.c4[i])	current
	165	i(@c.x6.xdemod_0.xp1_80x80_0.c5[i])	current
	166	i(@c.x6.xdemod_0.xp1_80x80_0.c6[i])	current
	167	i(@c.x6.xdemod_0.xp1_80x80_0.c7[i])	current
	168	i(@c.x6.xdemod_0.xp1_80x80_0.c8[i])	current
	169	i(@c.x6.xdemod_0.xp1x15_diif_pair_0.c0[i])	current
	170	i(@c.x6.xdemod_0.xp1x15_diif_pair_0.xp1x15_0.c0[i])	current
	171	i(@c.x6.xdemod_0.xp1x15_diif_pair_0.xp1x15_0.c1[i])	current
	172	i(@c.x6.xdemod_0.xp1x15_diif_pair_0.xp1x15_1.c0[i])	current
	173	i(@c.x6.xdemod_0.xp1x15_diif_pair_0.xp1x15_1.c1[i])	current
	174	i(@c.x6.xdemod_0.xp1x30_diff_pair_0.c0[i])	current
	175	i(@c.x6.xdemod_0.xp1x30_diff_pair_0.xp1x30_0.c0[i])	current
	176	i(@c.x6.xdemod_0.xp1x30_diff_pair_0.xp1x30_0.c1[i])	current
	177	i(@c.x6.xdemod_0.xp1x30_diff_pair_0.xp1x30_0.c2[i])	current
	178	i(@c.x6.xdemod_0.xp1x30_diff_pair_0.xp1x30_1.c0[i])	current
	179	i(@c.x6.xdemod_0.xp1x30_diff_pair_0.xp1x30_1.c1[i])	current
	180	i(@c.x6.xdemod_0.xp1x30_diff_pair_0.xp1x30_1.c2[i])	current
	181	i(@c.x6.xdemod_0.xsky130_fd_pr__res_xhigh_po_0p35_v22kjh_0.x0.xsky130_fd_pr__res_xhigh_po_0p35.c1[i])	current
	182	i(@c.x6.xdemod_0.xsky130_fd_pr__res_xhigh_po_0p35_v22kjh_0.x0.xsky130_fd_pr__res_xhigh_po_0p35.c2[i])	current
	183	i(@c.x6.xdemod_0.xsky130_fd_pr__res_xhigh_po_0p35_v22kjh_1.x0.xsky130_fd_pr__res_xhigh_po_0p35.c1[i])	current
	184	i(@c.x6.xdemod_0.xsky130_fd_pr__res_xhigh_po_0p35_v22kjh_1.x0.xsky130_fd_pr__res_xhigh_po_0p35.c2[i])	current
	185	i(@c.x6.xdemod_0.xsky130_fd_pr__res_xhigh_po_0p35_y6f53n_0.x0.xsky130_fd_pr__res_xhigh_po_0p35.c1[i])	current
	186	i(@c.x6.xdemod_0.xsky130_fd_pr__res_xhigh_po_0p35_y6f53n_0.x0.xsky130_fd_pr__res_xhigh_po_0p35.c2[i])	current
	187	i(@c.x6.xdemod_0.xsky130_fd_pr__res_xhigh_po_0p35_y6f53n_1.x0.xsky130_fd_pr__res_xhigh_po_0p35.c1[i])	current
	188	i(@c.x6.xdemod_0.xsky130_fd_pr__res_xhigh_po_0p35_y6f53n_1.x0.xsky130_fd_pr__res_xhigh_po_0p35.c2[i])	current
	189	i(@c.x6.xdemod_0.xsky130_fd_pr__rf_npn_05v5_w1p00l1p00_0.c0[i])	current
	190	i(@c.x6.xgill_cell_0.c0[i])	current
	191	i(@c.x6.xgill_cell_0.c1[i])	current
	192	i(@c.x6.xgill_cell_0.c2[i])	current
	193	i(@c.x6.xgill_cell_0.c3[i])	current
	194	i(@c.x6.xgill_cell_0.c4[i])	current
	195	i(@c.x6.xgill_cell_0.c5[i])	current
	196	i(@c.x6.xgill_cell_0.c6[i])	current
	197	i(@c.x6.xgill_cell_0.c7[i])	current
	198	i(@c.x6.xgill_cell_0.c8[i])	current
	199	i(@c.x6.xgill_cell_0.c9[i])	current
	200	i(@c.x6.xgill_cell_0.c10[i])	current
	201	i(@c.x6.xgill_cell_0.c11[i])	current
	202	i(@c.x6.xgill_cell_0.c12[i])	current
	203	i(@c.x6.xgill_cell_0.c13[i])	current
	204	i(@c.x6.xgill_cell_0.c14[i])	current
	205	i(@c.x6.xgill_cell_0.c15[i])	current
	206	i(@c.x6.xgill_cell_0.c16[i])	current
	207	i(@c.x6.xgill_cell_0.c17[i])	current
	208	i(@c.x6.xgill_cell_0.c18[i])	current
	209	i(@c.x6.xgill_cell_0.c19[i])	current
	210	i(@c.x6.xgill_cell_0.c20[i])	current
	211	i(@c.x6.xgill_cell_0.xgilbert_0.c0[i])	current
	212	i(@c.x6.xgill_cell_0.xgilbert_0.c1[i])	current
	213	i(@c.x6.xgill_cell_0.xgilbert_0.xnmos_40_0.c0[i])	current
	214	i(@c.x6.xgill_cell_0.xgilbert_0.xnmos_40_0.c1[i])	current
	215	i(@c.x6.xgill_cell_0.xgilbert_0.xnmos_40_0.c2[i])	current
	216	i(@c.x6.xgill_cell_0.xgilbert_0.xnmos_40_0.c3[i])	current
	217	i(@c.x6.xgill_cell_0.xgilbert_0.xnmos_40_1.c0[i])	current
	218	i(@c.x6.xgill_cell_0.xgilbert_0.xnmos_40_1.c1[i])	current
	219	i(@c.x6.xgill_cell_0.xgilbert_0.xnmos_40_1.c2[i])	current
	220	i(@c.x6.xgill_cell_0.xgilbert_0.xnmos_40_1.c3[i])	current
	221	i(@c.x6.xgill_cell_0.xgilbert_1.c0[i])	current
	222	i(@c.x6.xgill_cell_0.xgilbert_1.c1[i])	current
	223	i(@c.x6.xgill_cell_0.xgilbert_1.xnmos_40_0.c0[i])	current
	224	i(@c.x6.xgill_cell_0.xgilbert_1.xnmos_40_0.c1[i])	current
	225	i(@c.x6.xgill_cell_0.xgilbert_1.xnmos_40_0.c2[i])	current
	226	i(@c.x6.xgill_cell_0.xgilbert_1.xnmos_40_0.c3[i])	current
	227	i(@c.x6.xgill_cell_0.xgilbert_1.xnmos_40_1.c0[i])	current
	228	i(@c.x6.xgill_cell_0.xgilbert_1.xnmos_40_1.c1[i])	current
	229	i(@c.x6.xgill_cell_0.xgilbert_1.xnmos_40_1.c2[i])	current
	230	i(@c.x6.xgill_cell_0.xgilbert_1.xnmos_40_1.c3[i])	current
	231	i(@c.x6.xgill_cell_0.xgilbert_2.c0[i])	current
	232	i(@c.x6.xgill_cell_0.xgilbert_2.c1[i])	current
	233	i(@c.x6.xgill_cell_0.xgilbert_2.xnmos_40_0.c0[i])	current
	234	i(@c.x6.xgill_cell_0.xgilbert_2.xnmos_40_0.c1[i])	current
	235	i(@c.x6.xgill_cell_0.xgilbert_2.xnmos_40_0.c2[i])	current
	236	i(@c.x6.xgill_cell_0.xgilbert_2.xnmos_40_0.c3[i])	current
	237	i(@c.x6.xgill_cell_0.xgilbert_2.xnmos_40_1.c0[i])	current
	238	i(@c.x6.xgill_cell_0.xgilbert_2.xnmos_40_1.c1[i])	current
	239	i(@c.x6.xgill_cell_0.xgilbert_2.xnmos_40_1.c2[i])	current
	240	i(@c.x6.xgill_cell_0.xgilbert_2.xnmos_40_1.c3[i])	current
	241	i(@c.x6.xgill_cell_0.xgilbert_3.c0[i])	current
	242	i(@c.x6.xgill_cell_0.xgilbert_3.c1[i])	current
	243	i(@c.x6.xgill_cell_0.xgilbert_3.xnmos_40_0.c0[i])	current
	244	i(@c.x6.xgill_cell_0.xgilbert_3.xnmos_40_0.c1[i])	current
	245	i(@c.x6.xgill_cell_0.xgilbert_3.xnmos_40_0.c2[i])	current
	246	i(@c.x6.xgill_cell_0.xgilbert_3.xnmos_40_0.c3[i])	current
	247	i(@c.x6.xgill_cell_0.xgilbert_3.xnmos_40_1.c0[i])	current
	248	i(@c.x6.xgill_cell_0.xgilbert_3.xnmos_40_1.c1[i])	current
	249	i(@c.x6.xgill_cell_0.xgilbert_3.xnmos_40_1.c2[i])	current
	250	i(@c.x6.xgill_cell_0.xgilbert_3.xnmos_40_1.c3[i])	current
	251	i(@c.x6.xgill_cell_0.xif_res_0.x0.xsky130_fd_pr__res_xhigh_po_0p69.c1[i])	current
	252	i(@c.x6.xgill_cell_0.xif_res_0.x0.xsky130_fd_pr__res_xhigh_po_0p69.c2[i])	current
	253	i(@c.x6.xgill_cell_0.xif_res_1.x0.xsky130_fd_pr__res_xhigh_po_0p69.c1[i])	current
	254	i(@c.x6.xgill_cell_0.xif_res_1.x0.xsky130_fd_pr__res_xhigh_po_0p69.c2[i])	current
	255	i(@c.x6.xgill_cell_0.xlop_resistor_0.xsky130_fd_pr__res_xhigh_po_0p69_p8uvge_0.x0.xsky130_fd_pr__res_xhigh_po_0p69.c1[i])	current
	256	i(@c.x6.xgill_cell_0.xlop_resistor_0.xsky130_fd_pr__res_xhigh_po_0p69_p8uvge_0.x0.xsky130_fd_pr__res_xhigh_po_0p69.c2[i])	current
	257	i(@c.x6.xgill_cell_0.xlop_resistor_0.xsky130_fd_pr__res_xhigh_po_0p69_z9gmgv_0.x0.xsky130_fd_pr__res_xhigh_po_0p69.c1[i])	current
	258	i(@c.x6.xgill_cell_0.xlop_resistor_0.xsky130_fd_pr__res_xhigh_po_0p69_z9gmgv_0.x0.xsky130_fd_pr__res_xhigh_po_0p69.c2[i])	current
	259	i(@c.x6.xgill_cell_0.xlop_resistor_1.xsky130_fd_pr__res_xhigh_po_0p69_p8uvge_0.x0.xsky130_fd_pr__res_xhigh_po_0p69.c1[i])	current
	260	i(@c.x6.xgill_cell_0.xlop_resistor_1.xsky130_fd_pr__res_xhigh_po_0p69_p8uvge_0.x0.xsky130_fd_pr__res_xhigh_po_0p69.c2[i])	current
	261	i(@c.x6.xgill_cell_0.xlop_resistor_1.xsky130_fd_pr__res_xhigh_po_0p69_z9gmgv_0.x0.xsky130_fd_pr__res_xhigh_po_0p69.c1[i])	current
	262	i(@c.x6.xgill_cell_0.xlop_resistor_1.xsky130_fd_pr__res_xhigh_po_0p69_z9gmgv_0.x0.xsky130_fd_pr__res_xhigh_po_0p69.c2[i])	current
	263	i(@c.x6.xgill_cell_0.xnmos_40_0.c0[i])	current
	264	i(@c.x6.xgill_cell_0.xnmos_40_0.c1[i])	current
	265	i(@c.x6.xgill_cell_0.xnmos_40_0.c2[i])	current
	266	i(@c.x6.xgill_cell_0.xnmos_40_0.c3[i])	current
	267	i(@c.x6.xgill_cell_0.xnmos_40_1.c0[i])	current
	268	i(@c.x6.xgill_cell_0.xnmos_40_1.c1[i])	current
	269	i(@c.x6.xgill_cell_0.xnmos_40_1.c2[i])	current
	270	i(@c.x6.xgill_cell_0.xnmos_40_1.c3[i])	current
	271	i(@c.x6.xgill_cell_0.xnmos_40_2.c0[i])	current
	272	i(@c.x6.xgill_cell_0.xnmos_40_2.c1[i])	current
	273	i(@c.x6.xgill_cell_0.xnmos_40_2.c2[i])	current
	274	i(@c.x6.xgill_cell_0.xnmos_40_2.c3[i])	current
	275	i(@c.x6.xgill_cell_0.xnmos_40_3.c0[i])	current
	276	i(@c.x6.xgill_cell_0.xnmos_40_3.c1[i])	current
	277	i(@c.x6.xgill_cell_0.xnmos_40_3.c2[i])	current
	278	i(@c.x6.xgill_cell_0.xnmos_40_3.c3[i])	current
	279	i(@c.x6.xgill_cell_0.xsky130_fd_pr__pfet_01v8_axdrnp_0.c0[i])	current
	280	i(@c.x6.xgill_cell_0.xsky130_fd_pr__pfet_01v8_axdrnp_0.c1[i])	current
	281	i(@c.x6.xgill_cell_0.xsky130_fd_pr__pfet_01v8_gxdzbm_1.c0[i])	current
	282	i(@c.x6.xgill_cell_0.xsky130_fd_pr__pfet_01v8_gxdzbm_1.c1[i])	current
	283	i(@c.x6.xgill_cell_0.xvdd_res_0.xsky130_fd_pr__res_xhigh_po_0p69_lzxzx3_0.x0.xsky130_fd_pr__res_xhigh_po_0p69.c1[i])	current
	284	i(@c.x6.xgill_cell_0.xvdd_res_0.xsky130_fd_pr__res_xhigh_po_0p69_lzxzx3_0.x0.xsky130_fd_pr__res_xhigh_po_0p69.c2[i])	current
	285	i(@c.x6.xgill_cell_0.xvdd_res_1.xsky130_fd_pr__res_xhigh_po_0p69_lzxzx3_0.x0.xsky130_fd_pr__res_xhigh_po_0p69.c1[i])	current
	286	i(@c.x6.xgill_cell_0.xvdd_res_1.xsky130_fd_pr__res_xhigh_po_0p69_lzxzx3_0.x0.xsky130_fd_pr__res_xhigh_po_0p69.c2[i])	current
	287	i(@c.x6.xlna_0.c0[i])	current
	288	i(@c.x6.xlna_0.c1[i])	current
	289	i(@c.x6.xlna_0.c2[i])	current
	290	i(@c.x6.xlna_0.c3[i])	current
	291	i(@c.x6.xlna_0.c4[i])	current
	292	i(@c.x6.xlna_0.xdiff_pair_n_0.c0[i])	current
	293	i(@c.x6.xlna_0.xdiff_pair_n_0.c1[i])	current
	294	i(@c.x6.xlna_0.xdiff_pair_n_0.xn40x1_0.c0[i])	current
	295	i(@c.x6.xlna_0.xdiff_pair_n_0.xn40x1_0.c1[i])	current
	296	i(@c.x6.xlna_0.xdiff_pair_n_0.xn40x1_0.c2[i])	current
	297	i(@c.x6.xlna_0.xdiff_pair_n_0.xn40x1_1.c0[i])	current
	298	i(@c.x6.xlna_0.xdiff_pair_n_0.xn40x1_1.c1[i])	current
	299	i(@c.x6.xlna_0.xdiff_pair_n_0.xn40x1_1.c2[i])	current
	300	i(@c.x6.xlna_0.xdiff_pair_p_0.c0[i])	current
	301	i(@c.x6.xlna_0.xdiff_pair_p_0.xp40x1_0.c0[i])	current
	302	i(@c.x6.xlna_0.xdiff_pair_p_0.xp40x1_0.c1[i])	current
	303	i(@c.x6.xlna_0.xdiff_pair_p_0.xp40x1_1.c0[i])	current
	304	i(@c.x6.xlna_0.xdiff_pair_p_0.xp40x1_1.c1[i])	current
	305	i(@c.x6.xlna_0.xn70x1_0.c0[i])	current
	306	i(@c.x6.xlna_0.xn70x1_0.c1[i])	current
	307	i(@c.x6.xlna_0.xn70x1_0.c2[i])	current
	308	i(@c.x6.xlna_0.xsky130_fd_pr__cap_mim_m3_1_lj5jlg_0.c0[i])	current
	309	i(@c.x6.xlna_0.xsky130_fd_pr__cap_mim_m3_1_lj5jlg_0.c1[i])	current
	310	i(@c.x6.xlna_0.xsky130_fd_pr__cap_mim_m3_1_lj5jlg_0.c2[i])	current
	311	i(@c.x6.xlna_0.xsky130_fd_pr__cap_mim_m3_1_lj5jlg_0.x0.c1[i])	current
	312	i(@c.x6.xlna_0.xsky130_fd_pr__cap_mim_m3_1_lj5jlg_1.c0[i])	current
	313	i(@c.x6.xlna_0.xsky130_fd_pr__cap_mim_m3_1_lj5jlg_1.c1[i])	current
	314	i(@c.x6.xlna_0.xsky130_fd_pr__cap_mim_m3_1_lj5jlg_1.c2[i])	current
	315	i(@c.x6.xlna_0.xsky130_fd_pr__cap_mim_m3_1_lj5jlg_1.x0.c1[i])	current
	316	i(@c.x6.xlna_0.xsky130_fd_pr__res_xhigh_po_0p35_bb2zh9_0.x0.xsky130_fd_pr__res_xhigh_po_0p35.c1[i])	current
	317	i(@c.x6.xlna_0.xsky130_fd_pr__res_xhigh_po_0p35_bb2zh9_0.x0.xsky130_fd_pr__res_xhigh_po_0p35.c2[i])	current
	318	i(@c.x6.xlna_0.xsky130_fd_pr__res_xhigh_po_5p73_7d764l_0.x0.xsky130_fd_pr__res_xhigh_po_5p73.c1[i])	current
	319	i(@c.x6.xlna_0.xsky130_fd_pr__res_xhigh_po_5p73_7d764l_0.x0.xsky130_fd_pr__res_xhigh_po_5p73.c2[i])	current
	320	i(@c.x6.xlna_0.xsky130_fd_pr__res_xhigh_po_5p73_f3ynpn_0.x0.xsky130_fd_pr__res_xhigh_po_5p73.c1[i])	current
	321	i(@c.x6.xlna_0.xsky130_fd_pr__res_xhigh_po_5p73_f3ynpn_0.x0.xsky130_fd_pr__res_xhigh_po_5p73.c2[i])	current
	322	i(@c.x6.xlna_0.xsky130_fd_pr__res_xhigh_po_5p73_g7vz5e_0.x0.xsky130_fd_pr__res_xhigh_po_5p73.c1[i])	current
	323	i(@c.x6.xlna_0.xsky130_fd_pr__res_xhigh_po_5p73_g7vz5e_0.x0.xsky130_fd_pr__res_xhigh_po_5p73.c2[i])	current
	324	i(@c1[i])	current
	325	i(@c2[i])	current
	326	i(@c3[i])	current
	327	i(@l.x3.l1[i])	current
	328	i(@l.x3.l2[i])	current
	329	i(@l.x3.l4[i])	current
	330	i(@l.x3.l5[i])	current
	331	i(@l.x3.l7[i])	current
	332	i(@l.x3.l8[i])	current
	333	i(@m.x6.xbandgap_0.x0.msky130_fd_pr__pfet_01v8[ib])	current dims=0
	334	i(@m.x6.xbandgap_0.x0.msky130_fd_pr__pfet_01v8[id])	current
	335	i(@m.x6.xbandgap_0.x0.msky130_fd_pr__pfet_01v8[ig])	current dims=0
	336	i(@m.x6.xbandgap_0.x0.msky130_fd_pr__pfet_01v8[is])	current dims=0
	337	i(@m.x6.xbandgap_0.x1.msky130_fd_pr__pfet_01v8[ib])	current dims=0
	338	i(@m.x6.xbandgap_0.x1.msky130_fd_pr__pfet_01v8[id])	current
	339	i(@m.x6.xbandgap_0.x1.msky130_fd_pr__pfet_01v8[ig])	current dims=0
	340	i(@m.x6.xbandgap_0.x1.msky130_fd_pr__pfet_01v8[is])	current dims=0
	341	i(@m.x6.xbandgap_0.xdiff_pair_0.xn20x1_1.x0.msky130_fd_pr__nfet_01v8[ib])	current dims=0
	342	i(@m.x6.xbandgap_0.xdiff_pair_0.xn20x1_1.x0.msky130_fd_pr__nfet_01v8[id])	current
	343	i(@m.x6.xbandgap_0.xdiff_pair_0.xn20x1_1.x0.msky130_fd_pr__nfet_01v8[ig])	current dims=0
	344	i(@m.x6.xbandgap_0.xdiff_pair_0.xn20x1_1.x0.msky130_fd_pr__nfet_01v8[is])	current dims=0
	345	i(@m.x6.xbandgap_0.xdiff_pair_0.xn20x1_1.x1.msky130_fd_pr__nfet_01v8[ib])	current dims=0
	346	i(@m.x6.xbandgap_0.xdiff_pair_0.xn20x1_1.x1.msky130_fd_pr__nfet_01v8[id])	current
	347	i(@m.x6.xbandgap_0.xdiff_pair_0.xn20x1_1.x1.msky130_fd_pr__nfet_01v8[ig])	current dims=0
	348	i(@m.x6.xbandgap_0.xdiff_pair_0.xn20x1_1.x1.msky130_fd_pr__nfet_01v8[is])	current dims=0
	349	i(@m.x6.xbandgap_0.xdiff_pair_0.xn20x1_1.x2.msky130_fd_pr__nfet_01v8[ib])	current dims=0
	350	i(@m.x6.xbandgap_0.xdiff_pair_0.xn20x1_1.x2.msky130_fd_pr__nfet_01v8[id])	current
	351	i(@m.x6.xbandgap_0.xdiff_pair_0.xn20x1_1.x2.msky130_fd_pr__nfet_01v8[ig])	current dims=0
	352	i(@m.x6.xbandgap_0.xdiff_pair_0.xn20x1_1.x2.msky130_fd_pr__nfet_01v8[is])	current dims=0
	353	i(@m.x6.xbandgap_0.xdiff_pair_0.xn20x1_1.x3.msky130_fd_pr__nfet_01v8[ib])	current dims=0
	354	i(@m.x6.xbandgap_0.xdiff_pair_0.xn20x1_1.x3.msky130_fd_pr__nfet_01v8[id])	current
	355	i(@m.x6.xbandgap_0.xdiff_pair_0.xn20x1_1.x3.msky130_fd_pr__nfet_01v8[ig])	current dims=0
	356	i(@m.x6.xbandgap_0.xdiff_pair_0.xn20x1_1.x3.msky130_fd_pr__nfet_01v8[is])	current dims=0
	357	i(@m.x6.xbandgap_0.xdiff_pair_0.xn20x1_1.x4.msky130_fd_pr__nfet_01v8[ib])	current dims=0
	358	i(@m.x6.xbandgap_0.xdiff_pair_0.xn20x1_1.x4.msky130_fd_pr__nfet_01v8[id])	current
	359	i(@m.x6.xbandgap_0.xdiff_pair_0.xn20x1_1.x4.msky130_fd_pr__nfet_01v8[ig])	current dims=0
	360	i(@m.x6.xbandgap_0.xdiff_pair_0.xn20x1_1.x4.msky130_fd_pr__nfet_01v8[is])	current dims=0
	361	i(@m.x6.xbandgap_0.xdiff_pair_0.xn20x1_2.x0.msky130_fd_pr__nfet_01v8[ib])	current dims=0
	362	i(@m.x6.xbandgap_0.xdiff_pair_0.xn20x1_2.x0.msky130_fd_pr__nfet_01v8[id])	current
	363	i(@m.x6.xbandgap_0.xdiff_pair_0.xn20x1_2.x0.msky130_fd_pr__nfet_01v8[ig])	current dims=0
	364	i(@m.x6.xbandgap_0.xdiff_pair_0.xn20x1_2.x0.msky130_fd_pr__nfet_01v8[is])	current dims=0
	365	i(@m.x6.xbandgap_0.xdiff_pair_0.xn20x1_2.x1.msky130_fd_pr__nfet_01v8[ib])	current dims=0
	366	i(@m.x6.xbandgap_0.xdiff_pair_0.xn20x1_2.x1.msky130_fd_pr__nfet_01v8[id])	current
	367	i(@m.x6.xbandgap_0.xdiff_pair_0.xn20x1_2.x1.msky130_fd_pr__nfet_01v8[ig])	current dims=0
	368	i(@m.x6.xbandgap_0.xdiff_pair_0.xn20x1_2.x1.msky130_fd_pr__nfet_01v8[is])	current dims=0
	369	i(@m.x6.xbandgap_0.xdiff_pair_0.xn20x1_2.x2.msky130_fd_pr__nfet_01v8[ib])	current dims=0
	370	i(@m.x6.xbandgap_0.xdiff_pair_0.xn20x1_2.x2.msky130_fd_pr__nfet_01v8[id])	current
	371	i(@m.x6.xbandgap_0.xdiff_pair_0.xn20x1_2.x2.msky130_fd_pr__nfet_01v8[ig])	current dims=0
	372	i(@m.x6.xbandgap_0.xdiff_pair_0.xn20x1_2.x2.msky130_fd_pr__nfet_01v8[is])	current dims=0
	373	i(@m.x6.xbandgap_0.xdiff_pair_0.xn20x1_2.x3.msky130_fd_pr__nfet_01v8[ib])	current dims=0
	374	i(@m.x6.xbandgap_0.xdiff_pair_0.xn20x1_2.x3.msky130_fd_pr__nfet_01v8[id])	current
	375	i(@m.x6.xbandgap_0.xdiff_pair_0.xn20x1_2.x3.msky130_fd_pr__nfet_01v8[ig])	current dims=0
	376	i(@m.x6.xbandgap_0.xdiff_pair_0.xn20x1_2.x3.msky130_fd_pr__nfet_01v8[is])	current dims=0
	377	i(@m.x6.xbandgap_0.xdiff_pair_0.xn20x1_2.x4.msky130_fd_pr__nfet_01v8[ib])	current dims=0
	378	i(@m.x6.xbandgap_0.xdiff_pair_0.xn20x1_2.x4.msky130_fd_pr__nfet_01v8[id])	current
	379	i(@m.x6.xbandgap_0.xdiff_pair_0.xn20x1_2.x4.msky130_fd_pr__nfet_01v8[ig])	current dims=0
	380	i(@m.x6.xbandgap_0.xdiff_pair_0.xn20x1_2.x4.msky130_fd_pr__nfet_01v8[is])	current dims=0
	381	i(@m.x6.xbandgap_0.xdiff_pair_0.xp20x1_0.x0.msky130_fd_pr__pfet_01v8[ib])	current dims=0
	382	i(@m.x6.xbandgap_0.xdiff_pair_0.xp20x1_0.x0.msky130_fd_pr__pfet_01v8[id])	current
	383	i(@m.x6.xbandgap_0.xdiff_pair_0.xp20x1_0.x0.msky130_fd_pr__pfet_01v8[ig])	current dims=0
	384	i(@m.x6.xbandgap_0.xdiff_pair_0.xp20x1_0.x0.msky130_fd_pr__pfet_01v8[is])	current dims=0
	385	i(@m.x6.xbandgap_0.xdiff_pair_0.xp20x1_0.x1.msky130_fd_pr__pfet_01v8[ib])	current dims=0
	386	i(@m.x6.xbandgap_0.xdiff_pair_0.xp20x1_0.x1.msky130_fd_pr__pfet_01v8[id])	current
	387	i(@m.x6.xbandgap_0.xdiff_pair_0.xp20x1_0.x1.msky130_fd_pr__pfet_01v8[ig])	current dims=0
	388	i(@m.x6.xbandgap_0.xdiff_pair_0.xp20x1_0.x1.msky130_fd_pr__pfet_01v8[is])	current dims=0
	389	i(@m.x6.xbandgap_0.xdiff_pair_0.xp20x1_0.x2.msky130_fd_pr__pfet_01v8[ib])	current dims=0
	390	i(@m.x6.xbandgap_0.xdiff_pair_0.xp20x1_0.x2.msky130_fd_pr__pfet_01v8[id])	current
	391	i(@m.x6.xbandgap_0.xdiff_pair_0.xp20x1_0.x2.msky130_fd_pr__pfet_01v8[ig])	current dims=0
	392	i(@m.x6.xbandgap_0.xdiff_pair_0.xp20x1_0.x2.msky130_fd_pr__pfet_01v8[is])	current dims=0
	393	i(@m.x6.xbandgap_0.xdiff_pair_0.xp20x1_0.x3.msky130_fd_pr__pfet_01v8[ib])	current dims=0
	394	i(@m.x6.xbandgap_0.xdiff_pair_0.xp20x1_0.x3.msky130_fd_pr__pfet_01v8[id])	current
	395	i(@m.x6.xbandgap_0.xdiff_pair_0.xp20x1_0.x3.msky130_fd_pr__pfet_01v8[ig])	current dims=0
	396	i(@m.x6.xbandgap_0.xdiff_pair_0.xp20x1_0.x3.msky130_fd_pr__pfet_01v8[is])	current dims=0
	397	i(@m.x6.xbandgap_0.xdiff_pair_0.xp20x1_0.x4.msky130_fd_pr__pfet_01v8[ib])	current dims=0
	398	i(@m.x6.xbandgap_0.xdiff_pair_0.xp20x1_0.x4.msky130_fd_pr__pfet_01v8[id])	current
	399	i(@m.x6.xbandgap_0.xdiff_pair_0.xp20x1_0.x4.msky130_fd_pr__pfet_01v8[ig])	current dims=0
	400	i(@m.x6.xbandgap_0.xdiff_pair_0.xp20x1_0.x4.msky130_fd_pr__pfet_01v8[is])	current dims=0
	401	i(@m.x6.xbandgap_0.xdiff_pair_0.xp20x1_1.x0.msky130_fd_pr__pfet_01v8[ib])	current dims=0
	402	i(@m.x6.xbandgap_0.xdiff_pair_0.xp20x1_1.x0.msky130_fd_pr__pfet_01v8[id])	current
	403	i(@m.x6.xbandgap_0.xdiff_pair_0.xp20x1_1.x0.msky130_fd_pr__pfet_01v8[ig])	current dims=0
	404	i(@m.x6.xbandgap_0.xdiff_pair_0.xp20x1_1.x0.msky130_fd_pr__pfet_01v8[is])	current dims=0
	405	i(@m.x6.xbandgap_0.xdiff_pair_0.xp20x1_1.x1.msky130_fd_pr__pfet_01v8[ib])	current dims=0
	406	i(@m.x6.xbandgap_0.xdiff_pair_0.xp20x1_1.x1.msky130_fd_pr__pfet_01v8[id])	current
	407	i(@m.x6.xbandgap_0.xdiff_pair_0.xp20x1_1.x1.msky130_fd_pr__pfet_01v8[ig])	current dims=0
	408	i(@m.x6.xbandgap_0.xdiff_pair_0.xp20x1_1.x1.msky130_fd_pr__pfet_01v8[is])	current dims=0
	409	i(@m.x6.xbandgap_0.xdiff_pair_0.xp20x1_1.x2.msky130_fd_pr__pfet_01v8[ib])	current dims=0
	410	i(@m.x6.xbandgap_0.xdiff_pair_0.xp20x1_1.x2.msky130_fd_pr__pfet_01v8[id])	current
	411	i(@m.x6.xbandgap_0.xdiff_pair_0.xp20x1_1.x2.msky130_fd_pr__pfet_01v8[ig])	current dims=0
	412	i(@m.x6.xbandgap_0.xdiff_pair_0.xp20x1_1.x2.msky130_fd_pr__pfet_01v8[is])	current dims=0
	413	i(@m.x6.xbandgap_0.xdiff_pair_0.xp20x1_1.x3.msky130_fd_pr__pfet_01v8[ib])	current dims=0
	414	i(@m.x6.xbandgap_0.xdiff_pair_0.xp20x1_1.x3.msky130_fd_pr__pfet_01v8[id])	current
	415	i(@m.x6.xbandgap_0.xdiff_pair_0.xp20x1_1.x3.msky130_fd_pr__pfet_01v8[ig])	current dims=0
	416	i(@m.x6.xbandgap_0.xdiff_pair_0.xp20x1_1.x3.msky130_fd_pr__pfet_01v8[is])	current dims=0
	417	i(@m.x6.xbandgap_0.xdiff_pair_0.xp20x1_1.x4.msky130_fd_pr__pfet_01v8[ib])	current dims=0
	418	i(@m.x6.xbandgap_0.xdiff_pair_0.xp20x1_1.x4.msky130_fd_pr__pfet_01v8[id])	current
	419	i(@m.x6.xbandgap_0.xdiff_pair_0.xp20x1_1.x4.msky130_fd_pr__pfet_01v8[ig])	current dims=0
	420	i(@m.x6.xbandgap_0.xdiff_pair_0.xp20x1_1.x4.msky130_fd_pr__pfet_01v8[is])	current dims=0
	421	i(@m.x6.xbandgap_0.xn20x1_0.x0.msky130_fd_pr__nfet_01v8[ib])	current dims=0