Title: ** sch_path: /home/renslow/documents/ece5120/project/mag/top _level_tb.sch
Date: Tue Dec 10 16:19:24  2024
Plotname: Operating Point
Flags: real
No. Variables: 1951
No. Points: 1
Variables:
	0	v(vs1)	voltage
	1	i(@b.x6.xbandgap_0.xsky130_fd_pr__res_xhigh_po_5p73_g7v36e_0.x0.xsky130_fd_pr__res_xhigh_po_5p73.brbody[i])	current
	2	i(@b.x6.xbandgap_0.xsky130_fd_pr__res_xhigh_po_5p73_g7v36e_0.x0.xsky130_fd_pr__res_xhigh_po_5p73.brend[i])	current
	3	i(@b.x6.xbandgap_0.xsky130_fd_pr__res_xhigh_po_5p73_j2m2gk_0.x0.xsky130_fd_pr__res_xhigh_po_5p73.brbody[i])	current
	4	i(@b.x6.xbandgap_0.xsky130_fd_pr__res_xhigh_po_5p73_j2m2gk_0.x0.xsky130_fd_pr__res_xhigh_po_5p73.brend[i])	current
	5	i(@b.x6.xbandgap_0.xsky130_fd_pr__res_xhigh_po_5p73_j2m2gk_1.x0.xsky130_fd_pr__res_xhigh_po_5p73.brbody[i])	current
	6	i(@b.x6.xbandgap_0.xsky130_fd_pr__res_xhigh_po_5p73_j2m2gk_1.x0.xsky130_fd_pr__res_xhigh_po_5p73.brend[i])	current
	7	i(@b.x6.xbandgap_0.xsky130_fd_pr__res_xhigh_po_5p73_j2myfk_0.x0.xsky130_fd_pr__res_xhigh_po_5p73.brbody[i])	current
	8	i(@b.x6.xbandgap_0.xsky130_fd_pr__res_xhigh_po_5p73_j2myfk_0.x0.xsky130_fd_pr__res_xhigh_po_5p73.brend[i])	current
	9	i(@b.x6.xbandgap_0.xsky130_fd_pr__res_xhigh_po_5p73_j2myfk_1.x0.xsky130_fd_pr__res_xhigh_po_5p73.brbody[i])	current
	10	i(@b.x6.xbandgap_0.xsky130_fd_pr__res_xhigh_po_5p73_j2myfk_1.x0.xsky130_fd_pr__res_xhigh_po_5p73.brend[i])	current
	11	i(@b.x6.xdemod_0.xsky130_fd_pr__res_xhigh_po_0p35_v22kjh_0.x0.xsky130_fd_pr__res_xhigh_po_0p35.brbody[i])	current
	12	i(@b.x6.xdemod_0.xsky130_fd_pr__res_xhigh_po_0p35_v22kjh_0.x0.xsky130_fd_pr__res_xhigh_po_0p35.brend[i])	current
	13	i(@b.x6.xdemod_0.xsky130_fd_pr__res_xhigh_po_0p35_v22kjh_1.x0.xsky130_fd_pr__res_xhigh_po_0p35.brbody[i])	current
	14	i(@b.x6.xdemod_0.xsky130_fd_pr__res_xhigh_po_0p35_v22kjh_1.x0.xsky130_fd_pr__res_xhigh_po_0p35.brend[i])	current
	15	i(@b.x6.xdemod_0.xsky130_fd_pr__res_xhigh_po_0p35_y6f53n_0.x0.xsky130_fd_pr__res_xhigh_po_0p35.brbody[i])	current
	16	i(@b.x6.xdemod_0.xsky130_fd_pr__res_xhigh_po_0p35_y6f53n_0.x0.xsky130_fd_pr__res_xhigh_po_0p35.brend[i])	current
	17	i(@b.x6.xdemod_0.xsky130_fd_pr__res_xhigh_po_0p35_y6f53n_1.x0.xsky130_fd_pr__res_xhigh_po_0p35.brbody[i])	current
	18	i(@b.x6.xdemod_0.xsky130_fd_pr__res_xhigh_po_0p35_y6f53n_1.x0.xsky130_fd_pr__res_xhigh_po_0p35.brend[i])	current
	19	i(@b.x6.xgill_cell_0.xif_res_0.x0.xsky130_fd_pr__res_xhigh_po_0p69.brbody[i])	current
	20	i(@b.x6.xgill_cell_0.xif_res_0.x0.xsky130_fd_pr__res_xhigh_po_0p69.brend[i])	current
	21	i(@b.x6.xgill_cell_0.xif_res_1.x0.xsky130_fd_pr__res_xhigh_po_0p69.brbody[i])	current
	22	i(@b.x6.xgill_cell_0.xif_res_1.x0.xsky130_fd_pr__res_xhigh_po_0p69.brend[i])	current
	23	i(@b.x6.xgill_cell_0.xlop_resistor_0.xsky130_fd_pr__res_xhigh_po_0p69_p8uvge_0.x0.xsky130_fd_pr__res_xhigh_po_0p69.brbody[i])	current
	24	i(@b.x6.xgill_cell_0.xlop_resistor_0.xsky130_fd_pr__res_xhigh_po_0p69_p8uvge_0.x0.xsky130_fd_pr__res_xhigh_po_0p69.brend[i])	current
	25	i(@b.x6.xgill_cell_0.xlop_resistor_0.xsky130_fd_pr__res_xhigh_po_0p69_z9gmgv_0.x0.xsky130_fd_pr__res_xhigh_po_0p69.brbody[i])	current
	26	i(@b.x6.xgill_cell_0.xlop_resistor_0.xsky130_fd_pr__res_xhigh_po_0p69_z9gmgv_0.x0.xsky130_fd_pr__res_xhigh_po_0p69.brend[i])	current
	27	i(@b.x6.xgill_cell_0.xlop_resistor_1.xsky130_fd_pr__res_xhigh_po_0p69_p8uvge_0.x0.xsky130_fd_pr__res_xhigh_po_0p69.brbody[i])	current
	28	i(@b.x6.xgill_cell_0.xlop_resistor_1.xsky130_fd_pr__res_xhigh_po_0p69_p8uvge_0.x0.xsky130_fd_pr__res_xhigh_po_0p69.brend[i])	current
	29	i(@b.x6.xgill_cell_0.xlop_resistor_1.xsky130_fd_pr__res_xhigh_po_0p69_z9gmgv_0.x0.xsky130_fd_pr__res_xhigh_po_0p69.brbody[i])	current
	30	i(@b.x6.xgill_cell_0.xlop_resistor_1.xsky130_fd_pr__res_xhigh_po_0p69_z9gmgv_0.x0.xsky130_fd_pr__res_xhigh_po_0p69.brend[i])	current
	31	i(@b.x6.xgill_cell_0.xvdd_res_0.xsky130_fd_pr__res_xhigh_po_0p69_lzxzx3_0.x0.xsky130_fd_pr__res_xhigh_po_0p69.brbody[i])	current
	32	i(@b.x6.xgill_cell_0.xvdd_res_0.xsky130_fd_pr__res_xhigh_po_0p69_lzxzx3_0.x0.xsky130_fd_pr__res_xhigh_po_0p69.brend[i])	current
	33	i(@b.x6.xgill_cell_0.xvdd_res_1.xsky130_fd_pr__res_xhigh_po_0p69_lzxzx3_0.x0.xsky130_fd_pr__res_xhigh_po_0p69.brbody[i])	current
	34	i(@b.x6.xgill_cell_0.xvdd_res_1.xsky130_fd_pr__res_xhigh_po_0p69_lzxzx3_0.x0.xsky130_fd_pr__res_xhigh_po_0p69.brend[i])	current
	35	i(@b.x6.xlna_0.xsky130_fd_pr__res_xhigh_po_0p35_bb2zh9_0.x0.xsky130_fd_pr__res_xhigh_po_0p35.brbody[i])	current
	36	i(@b.x6.xlna_0.xsky130_fd_pr__res_xhigh_po_0p35_bb2zh9_0.x0.xsky130_fd_pr__res_xhigh_po_0p35.brend[i])	current
	37	i(@b.x6.xlna_0.xsky130_fd_pr__res_xhigh_po_5p73_7d764l_0.x0.xsky130_fd_pr__res_xhigh_po_5p73.brbody[i])	current
	38	i(@b.x6.xlna_0.xsky130_fd_pr__res_xhigh_po_5p73_7d764l_0.x0.xsky130_fd_pr__res_xhigh_po_5p73.brend[i])	current
	39	i(@b.x6.xlna_0.xsky130_fd_pr__res_xhigh_po_5p73_f3ynpn_0.x0.xsky130_fd_pr__res_xhigh_po_5p73.brbody[i])	current
	40	i(@b.x6.xlna_0.xsky130_fd_pr__res_xhigh_po_5p73_f3ynpn_0.x0.xsky130_fd_pr__res_xhigh_po_5p73.brend[i])	current
	41	i(@b.x6.xlna_0.xsky130_fd_pr__res_xhigh_po_5p73_g7vz5e_0.x0.xsky130_fd_pr__res_xhigh_po_5p73.brbody[i])	current
	42	i(@b.x6.xlna_0.xsky130_fd_pr__res_xhigh_po_5p73_g7vz5e_0.x0.xsky130_fd_pr__res_xhigh_po_5p73.brend[i])	current
	43	i(@c.x3.c0[i])	current
	44	i(@c.x3.c1[i])	current
	45	i(@c.x3.c2[i])	current
	46	i(@c.x3.c3[i])	current
	47	i(@c.x3.c4[i])	current
	48	i(@c.x3.c5[i])	current
	49	i(@c.x3.c6[i])	current
	50	i(@c.x3.c7[i])	current
	51	i(@c.x3.c8[i])	current
	52	i(@c.x3.c9[i])	current
	53	i(@c.x3.c10[i])	current
	54	i(@c.x3.c11[i])	current
	55	i(@c.x6.xbandgap_0.xsky130_fd_pr__res_xhigh_po_5p73_g7v36e_0.x0.xsky130_fd_pr__res_xhigh_po_5p73.c1[i])	current
	56	i(@c.x6.xbandgap_0.xsky130_fd_pr__res_xhigh_po_5p73_g7v36e_0.x0.xsky130_fd_pr__res_xhigh_po_5p73.c2[i])	current
	57	i(@c.x6.xbandgap_0.xsky130_fd_pr__res_xhigh_po_5p73_j2m2gk_0.x0.xsky130_fd_pr__res_xhigh_po_5p73.c1[i])	current
	58	i(@c.x6.xbandgap_0.xsky130_fd_pr__res_xhigh_po_5p73_j2m2gk_0.x0.xsky130_fd_pr__res_xhigh_po_5p73.c2[i])	current
	59	i(@c.x6.xbandgap_0.xsky130_fd_pr__res_xhigh_po_5p73_j2m2gk_1.x0.xsky130_fd_pr__res_xhigh_po_5p73.c1[i])	current
	60	i(@c.x6.xbandgap_0.xsky130_fd_pr__res_xhigh_po_5p73_j2m2gk_1.x0.xsky130_fd_pr__res_xhigh_po_5p73.c2[i])	current
	61	i(@c.x6.xbandgap_0.xsky130_fd_pr__res_xhigh_po_5p73_j2myfk_0.x0.xsky130_fd_pr__res_xhigh_po_5p73.c1[i])	current
	62	i(@c.x6.xbandgap_0.xsky130_fd_pr__res_xhigh_po_5p73_j2myfk_0.x0.xsky130_fd_pr__res_xhigh_po_5p73.c2[i])	current
	63	i(@c.x6.xbandgap_0.xsky130_fd_pr__res_xhigh_po_5p73_j2myfk_1.x0.xsky130_fd_pr__res_xhigh_po_5p73.c1[i])	current
	64	i(@c.x6.xbandgap_0.xsky130_fd_pr__res_xhigh_po_5p73_j2myfk_1.x0.xsky130_fd_pr__res_xhigh_po_5p73.c2[i])	current
	65	i(@c.x6.xdemod_0.xsky130_fd_pr__res_xhigh_po_0p35_v22kjh_0.x0.xsky130_fd_pr__res_xhigh_po_0p35.c1[i])	current
	66	i(@c.x6.xdemod_0.xsky130_fd_pr__res_xhigh_po_0p35_v22kjh_0.x0.xsky130_fd_pr__res_xhigh_po_0p35.c2[i])	current
	67	i(@c.x6.xdemod_0.xsky130_fd_pr__res_xhigh_po_0p35_v22kjh_1.x0.xsky130_fd_pr__res_xhigh_po_0p35.c1[i])	current
	68	i(@c.x6.xdemod_0.xsky130_fd_pr__res_xhigh_po_0p35_v22kjh_1.x0.xsky130_fd_pr__res_xhigh_po_0p35.c2[i])	current
	69	i(@c.x6.xdemod_0.xsky130_fd_pr__res_xhigh_po_0p35_y6f53n_0.x0.xsky130_fd_pr__res_xhigh_po_0p35.c1[i])	current
	70	i(@c.x6.xdemod_0.xsky130_fd_pr__res_xhigh_po_0p35_y6f53n_0.x0.xsky130_fd_pr__res_xhigh_po_0p35.c2[i])	current
	71	i(@c.x6.xdemod_0.xsky130_fd_pr__res_xhigh_po_0p35_y6f53n_1.x0.xsky130_fd_pr__res_xhigh_po_0p35.c1[i])	current
	72	i(@c.x6.xdemod_0.xsky130_fd_pr__res_xhigh_po_0p35_y6f53n_1.x0.xsky130_fd_pr__res_xhigh_po_0p35.c2[i])	current
	73	i(@c.x6.xgill_cell_0.xif_res_0.x0.xsky130_fd_pr__res_xhigh_po_0p69.c1[i])	current
	74	i(@c.x6.xgill_cell_0.xif_res_0.x0.xsky130_fd_pr__res_xhigh_po_0p69.c2[i])	current
	75	i(@c.x6.xgill_cell_0.xif_res_1.x0.xsky130_fd_pr__res_xhigh_po_0p69.c1[i])	current
	76	i(@c.x6.xgill_cell_0.xif_res_1.x0.xsky130_fd_pr__res_xhigh_po_0p69.c2[i])	current
	77	i(@c.x6.xgill_cell_0.xlop_resistor_0.xsky130_fd_pr__res_xhigh_po_0p69_p8uvge_0.x0.xsky130_fd_pr__res_xhigh_po_0p69.c1[i])	current
	78	i(@c.x6.xgill_cell_0.xlop_resistor_0.xsky130_fd_pr__res_xhigh_po_0p69_p8uvge_0.x0.xsky130_fd_pr__res_xhigh_po_0p69.c2[i])	current
	79	i(@c.x6.xgill_cell_0.xlop_resistor_0.xsky130_fd_pr__res_xhigh_po_0p69_z9gmgv_0.x0.xsky130_fd_pr__res_xhigh_po_0p69.c1[i])	current
	80	i(@c.x6.xgill_cell_0.xlop_resistor_0.xsky130_fd_pr__res_xhigh_po_0p69_z9gmgv_0.x0.xsky130_fd_pr__res_xhigh_po_0p69.c2[i])	current
	81	i(@c.x6.xgill_cell_0.xlop_resistor_1.xsky130_fd_pr__res_xhigh_po_0p69_p8uvge_0.x0.xsky130_fd_pr__res_xhigh_po_0p69.c1[i])	current
	82	i(@c.x6.xgill_cell_0.xlop_resistor_1.xsky130_fd_pr__res_xhigh_po_0p69_p8uvge_0.x0.xsky130_fd_pr__res_xhigh_po_0p69.c2[i])	current
	83	i(@c.x6.xgill_cell_0.xlop_resistor_1.xsky130_fd_pr__res_xhigh_po_0p69_z9gmgv_0.x0.xsky130_fd_pr__res_xhigh_po_0p69.c1[i])	current
	84	i(@c.x6.xgill_cell_0.xlop_resistor_1.xsky130_fd_pr__res_xhigh_po_0p69_z9gmgv_0.x0.xsky130_fd_pr__res_xhigh_po_0p69.c2[i])	current
	85	i(@c.x6.xgill_cell_0.xvdd_res_0.xsky130_fd_pr__res_xhigh_po_0p69_lzxzx3_0.x0.xsky130_fd_pr__res_xhigh_po_0p69.c1[i])	current
	86	i(@c.x6.xgill_cell_0.xvdd_res_0.xsky130_fd_pr__res_xhigh_po_0p69_lzxzx3_0.x0.xsky130_fd_pr__res_xhigh_po_0p69.c2[i])	current
	87	i(@c.x6.xgill_cell_0.xvdd_res_1.xsky130_fd_pr__res_xhigh_po_0p69_lzxzx3_0.x0.xsky130_fd_pr__res_xhigh_po_0p69.c1[i])	current
	88	i(@c.x6.xgill_cell_0.xvdd_res_1.xsky130_fd_pr__res_xhigh_po_0p69_lzxzx3_0.x0.xsky130_fd_pr__res_xhigh_po_0p69.c2[i])	current
	89	i(@c.x6.xlna_0.xsky130_fd_pr__cap_mim_m3_1_lj5jlg_0.x0.c1[i])	current
	90	i(@c.x6.xlna_0.xsky130_fd_pr__cap_mim_m3_1_lj5jlg_1.x0.c1[i])	current
	91	i(@c.x6.xlna_0.xsky130_fd_pr__res_xhigh_po_0p35_bb2zh9_0.x0.xsky130_fd_pr__res_xhigh_po_0p35.c1[i])	current
	92	i(@c.x6.xlna_0.xsky130_fd_pr__res_xhigh_po_0p35_bb2zh9_0.x0.xsky130_fd_pr__res_xhigh_po_0p35.c2[i])	current
	93	i(@c.x6.xlna_0.xsky130_fd_pr__res_xhigh_po_5p73_7d764l_0.x0.xsky130_fd_pr__res_xhigh_po_5p73.c1[i])	current
	94	i(@c.x6.xlna_0.xsky130_fd_pr__res_xhigh_po_5p73_7d764l_0.x0.xsky130_fd_pr__res_xhigh_po_5p73.c2[i])	current
	95	i(@c.x6.xlna_0.xsky130_fd_pr__res_xhigh_po_5p73_f3ynpn_0.x0.xsky130_fd_pr__res_xhigh_po_5p73.c1[i])	current
	96	i(@c.x6.xlna_0.xsky130_fd_pr__res_xhigh_po_5p73_f3ynpn_0.x0.xsky130_fd_pr__res_xhigh_po_5p73.c2[i])	current
	97	i(@c.x6.xlna_0.xsky130_fd_pr__res_xhigh_po_5p73_g7vz5e_0.x0.xsky130_fd_pr__res_xhigh_po_5p73.c1[i])	current
	98	i(@c.x6.xlna_0.xsky130_fd_pr__res_xhigh_po_5p73_g7vz5e_0.x0.xsky130_fd_pr__res_xhigh_po_5p73.c2[i])	current
	99	i(@c1[i])	current
	100	i(@c2[i])	current
	101	i(@c3[i])	current
	102	i(@l.x3.l1[i])	current
	103	i(@l.x3.l2[i])	current
	104	i(@l.x3.l4[i])	current
	105	i(@l.x3.l5[i])	current
	106	i(@l.x3.l7[i])	current
	107	i(@l.x3.l8[i])	current
	108	i(@m.x6.xbandgap_0.x0.msky130_fd_pr__pfet_01v8[ib])	current dims=0
	109	i(@m.x6.xbandgap_0.x0.msky130_fd_pr__pfet_01v8[id])	current
	110	i(@m.x6.xbandgap_0.x0.msky130_fd_pr__pfet_01v8[ig])	current dims=0
	111	i(@m.x6.xbandgap_0.x0.msky130_fd_pr__pfet_01v8[is])	current dims=0
	112	i(@m.x6.xbandgap_0.x1.msky130_fd_pr__pfet_01v8[ib])	current dims=0
	113	i(@m.x6.xbandgap_0.x1.msky130_fd_pr__pfet_01v8[id])	current
	114	i(@m.x6.xbandgap_0.x1.msky130_fd_pr__pfet_01v8[ig])	current dims=0
	115	i(@m.x6.xbandgap_0.x1.msky130_fd_pr__pfet_01v8[is])	current dims=0
	116	i(@m.x6.xbandgap_0.xdiff_pair_0.xn20x1_1.x0.msky130_fd_pr__nfet_01v8[ib])	current dims=0
	117	i(@m.x6.xbandgap_0.xdiff_pair_0.xn20x1_1.x0.msky130_fd_pr__nfet_01v8[id])	current
	118	i(@m.x6.xbandgap_0.xdiff_pair_0.xn20x1_1.x0.msky130_fd_pr__nfet_01v8[ig])	current dims=0
	119	i(@m.x6.xbandgap_0.xdiff_pair_0.xn20x1_1.x0.msky130_fd_pr__nfet_01v8[is])	current dims=0
	120	i(@m.x6.xbandgap_0.xdiff_pair_0.xn20x1_1.x1.msky130_fd_pr__nfet_01v8[ib])	current dims=0
	121	i(@m.x6.xbandgap_0.xdiff_pair_0.xn20x1_1.x1.msky130_fd_pr__nfet_01v8[id])	current
	122	i(@m.x6.xbandgap_0.xdiff_pair_0.xn20x1_1.x1.msky130_fd_pr__nfet_01v8[ig])	current dims=0
	123	i(@m.x6.xbandgap_0.xdiff_pair_0.xn20x1_1.x1.msky130_fd_pr__nfet_01v8[is])	current dims=0
	124	i(@m.x6.xbandgap_0.xdiff_pair_0.xn20x1_1.x2.msky130_fd_pr__nfet_01v8[ib])	current dims=0
	125	i(@m.x6.xbandgap_0.xdiff_pair_0.xn20x1_1.x2.msky130_fd_pr__nfet_01v8[id])	current
	126	i(@m.x6.xbandgap_0.xdiff_pair_0.xn20x1_1.x2.msky130_fd_pr__nfet_01v8[ig])	current dims=0
	127	i(@m.x6.xbandgap_0.xdiff_pair_0.xn20x1_1.x2.msky130_fd_pr__nfet_01v8[is])	current dims=0
	128	i(@m.x6.xbandgap_0.xdiff_pair_0.xn20x1_1.x3.msky130_fd_pr__nfet_01v8[ib])	current dims=0
	129	i(@m.x6.xbandgap_0.xdiff_pair_0.xn20x1_1.x3.msky130_fd_pr__nfet_01v8[id])	current
	130	i(@m.x6.xbandgap_0.xdiff_pair_0.xn20x1_1.x3.msky130_fd_pr__nfet_01v8[ig])	current dims=0
	131	i(@m.x6.xbandgap_0.xdiff_pair_0.xn20x1_1.x3.msky130_fd_pr__nfet_01v8[is])	current dims=0
	132	i(@m.x6.xbandgap_0.xdiff_pair_0.xn20x1_1.x4.msky130_fd_pr__nfet_01v8[ib])	current dims=0
	133	i(@m.x6.xbandgap_0.xdiff_pair_0.xn20x1_1.x4.msky130_fd_pr__nfet_01v8[id])	current
	134	i(@m.x6.xbandgap_0.xdiff_pair_0.xn20x1_1.x4.msky130_fd_pr__nfet_01v8[ig])	current dims=0
	135	i(@m.x6.xbandgap_0.xdiff_pair_0.xn20x1_1.x4.msky130_fd_pr__nfet_01v8[is])	current dims=0
	136	i(@m.x6.xbandgap_0.xdiff_pair_0.xn20x1_2.x0.msky130_fd_pr__nfet_01v8[ib])	current dims=0
	137	i(@m.x6.xbandgap_0.xdiff_pair_0.xn20x1_2.x0.msky130_fd_pr__nfet_01v8[id])	current
	138	i(@m.x6.xbandgap_0.xdiff_pair_0.xn20x1_2.x0.msky130_fd_pr__nfet_01v8[ig])	current dims=0
	139	i(@m.x6.xbandgap_0.xdiff_pair_0.xn20x1_2.x0.msky130_fd_pr__nfet_01v8[is])	current dims=0
	140	i(@m.x6.xbandgap_0.xdiff_pair_0.xn20x1_2.x1.msky130_fd_pr__nfet_01v8[ib])	current dims=0
	141	i(@m.x6.xbandgap_0.xdiff_pair_0.xn20x1_2.x1.msky130_fd_pr__nfet_01v8[id])	current
	142	i(@m.x6.xbandgap_0.xdiff_pair_0.xn20x1_2.x1.msky130_fd_pr__nfet_01v8[ig])	current dims=0
	143	i(@m.x6.xbandgap_0.xdiff_pair_0.xn20x1_2.x1.msky130_fd_pr__nfet_01v8[is])	current dims=0
	144	i(@m.x6.xbandgap_0.xdiff_pair_0.xn20x1_2.x2.msky130_fd_pr__nfet_01v8[ib])	current dims=0
	145	i(@m.x6.xbandgap_0.xdiff_pair_0.xn20x1_2.x2.msky130_fd_pr__nfet_01v8[id])	current
	146	i(@m.x6.xbandgap_0.xdiff_pair_0.xn20x1_2.x2.msky130_fd_pr__nfet_01v8[ig])	current dims=0
	147	i(@m.x6.xbandgap_0.xdiff_pair_0.xn20x1_2.x2.msky130_fd_pr__nfet_01v8[is])	current dims=0
	148	i(@m.x6.xbandgap_0.xdiff_pair_0.xn20x1_2.x3.msky130_fd_pr__nfet_01v8[ib])	current dims=0
	149	i(@m.x6.xbandgap_0.xdiff_pair_0.xn20x1_2.x3.msky130_fd_pr__nfet_01v8[id])	current
	150	i(@m.x6.xbandgap_0.xdiff_pair_0.xn20x1_2.x3.msky130_fd_pr__nfet_01v8[ig])	current dims=0
	151	i(@m.x6.xbandgap_0.xdiff_pair_0.xn20x1_2.x3.msky130_fd_pr__nfet_01v8[is])	current dims=0
	152	i(@m.x6.xbandgap_0.xdiff_pair_0.xn20x1_2.x4.msky130_fd_pr__nfet_01v8[ib])	current dims=0
	153	i(@m.x6.xbandgap_0.xdiff_pair_0.xn20x1_2.x4.msky130_fd_pr__nfet_01v8[id])	current
	154	i(@m.x6.xbandgap_0.xdiff_pair_0.xn20x1_2.x4.msky130_fd_pr__nfet_01v8[ig])	current dims=0
	155	i(@m.x6.xbandgap_0.xdiff_pair_0.xn20x1_2.x4.msky130_fd_pr__nfet_01v8[is])	current dims=0
	156	i(@m.x6.xbandgap_0.xdiff_pair_0.xp20x1_0.x0.msky130_fd_pr__pfet_01v8[ib])	current dims=0
	157	i(@m.x6.xbandgap_0.xdiff_pair_0.xp20x1_0.x0.msky130_fd_pr__pfet_01v8[id])	current
	158	i(@m.x6.xbandgap_0.xdiff_pair_0.xp20x1_0.x0.msky130_fd_pr__pfet_01v8[ig])	current dims=0
	159	i(@m.x6.xbandgap_0.xdiff_pair_0.xp20x1_0.x0.msky130_fd_pr__pfet_01v8[is])	current dims=0
	160	i(@m.x6.xbandgap_0.xdiff_pair_0.xp20x1_0.x1.msky130_fd_pr__pfet_01v8[ib])	current dims=0
	161	i(@m.x6.xbandgap_0.xdiff_pair_0.xp20x1_0.x1.msky130_fd_pr__pfet_01v8[id])	current
	162	i(@m.x6.xbandgap_0.xdiff_pair_0.xp20x1_0.x1.msky130_fd_pr__pfet_01v8[ig])	current dims=0
	163	i(@m.x6.xbandgap_0.xdiff_pair_0.xp20x1_0.x1.msky130_fd_pr__pfet_01v8[is])	current dims=0
	164	i(@m.x6.xbandgap_0.xdiff_pair_0.xp20x1_0.x2.msky130_fd_pr__pfet_01v8[ib])	current dims=0
	165	i(@m.x6.xbandgap_0.xdiff_pair_0.xp20x1_0.x2.msky130_fd_pr__pfet_01v8[id])	current
	166	i(@m.x6.xbandgap_0.xdiff_pair_0.xp20x1_0.x2.msky130_fd_pr__pfet_01v8[ig])	current dims=0
	167	i(@m.x6.xbandgap_0.xdiff_pair_0.xp20x1_0.x2.msky130_fd_pr__pfet_01v8[is])	current dims=0
	168	i(@m.x6.xbandgap_0.xdiff_pair_0.xp20x1_0.x3.msky130_fd_pr__pfet_01v8[ib])	current dims=0
	169	i(@m.x6.xbandgap_0.xdiff_pair_0.xp20x1_0.x3.msky130_fd_pr__pfet_01v8[id])	current
	170	i(@m.x6.xbandgap_0.xdiff_pair_0.xp20x1_0.x3.msky130_fd_pr__pfet_01v8[ig])	current dims=0
	171	i(@m.x6.xbandgap_0.xdiff_pair_0.xp20x1_0.x3.msky130_fd_pr__pfet_01v8[is])	current dims=0
	172	i(@m.x6.xbandgap_0.xdiff_pair_0.xp20x1_0.x4.msky130_fd_pr__pfet_01v8[ib])	current dims=0
	173	i(@m.x6.xbandgap_0.xdiff_pair_0.xp20x1_0.x4.msky130_fd_pr__pfet_01v8[id])	current
	174	i(@m.x6.xbandgap_0.xdiff_pair_0.xp20x1_0.x4.msky130_fd_pr__pfet_01v8[ig])	current dims=0
	175	i(@m.x6.xbandgap_0.xdiff_pair_0.xp20x1_0.x4.msky130_fd_pr__pfet_01v8[is])	current dims=0
	176	i(@m.x6.xbandgap_0.xdiff_pair_0.xp20x1_1.x0.msky130_fd_pr__pfet_01v8[ib])	current dims=0
	177	i(@m.x6.xbandgap_0.xdiff_pair_0.xp20x1_1.x0.msky130_fd_pr__pfet_01v8[id])	current
	178	i(@m.x6.xbandgap_0.xdiff_pair_0.xp20x1_1.x0.msky130_fd_pr__pfet_01v8[ig])	current dims=0
	179	i(@m.x6.xbandgap_0.xdiff_pair_0.xp20x1_1.x0.msky130_fd_pr__pfet_01v8[is])	current dims=0
	180	i(@m.x6.xbandgap_0.xdiff_pair_0.xp20x1_1.x1.msky130_fd_pr__pfet_01v8[ib])	current dims=0
	181	i(@m.x6.xbandgap_0.xdiff_pair_0.xp20x1_1.x1.msky130_fd_pr__pfet_01v8[id])	current
	182	i(@m.x6.xbandgap_0.xdiff_pair_0.xp20x1_1.x1.msky130_fd_pr__pfet_01v8[ig])	current dims=0
	183	i(@m.x6.xbandgap_0.xdiff_pair_0.xp20x1_1.x1.msky130_fd_pr__pfet_01v8[is])	current dims=0
	184	i(@m.x6.xbandgap_0.xdiff_pair_0.xp20x1_1.x2.msky130_fd_pr__pfet_01v8[ib])	current dims=0
	185	i(@m.x6.xbandgap_0.xdiff_pair_0.xp20x1_1.x2.msky130_fd_pr__pfet_01v8[id])	current
	186	i(@m.x6.xbandgap_0.xdiff_pair_0.xp20x1_1.x2.msky130_fd_pr__pfet_01v8[ig])	current dims=0
	187	i(@m.x6.xbandgap_0.xdiff_pair_0.xp20x1_1.x2.msky130_fd_pr__pfet_01v8[is])	current dims=0
	188	i(@m.x6.xbandgap_0.xdiff_pair_0.xp20x1_1.x3.msky130_fd_pr__pfet_01v8[ib])	current dims=0
	189	i(@m.x6.xbandgap_0.xdiff_pair_0.xp20x1_1.x3.msky130_fd_pr__pfet_01v8[id])	current
	190	i(@m.x6.xbandgap_0.xdiff_pair_0.xp20x1_1.x3.msky130_fd_pr__pfet_01v8[ig])	current dims=0
	191	i(@m.x6.xbandgap_0.xdiff_pair_0.xp20x1_1.x3.msky130_fd_pr__pfet_01v8[is])	current dims=0
	192	i(@m.x6.xbandgap_0.xdiff_pair_0.xp20x1_1.x4.msky130_fd_pr__pfet_01v8[ib])	current dims=0
	193	i(@m.x6.xbandgap_0.xdiff_pair_0.xp20x1_1.x4.msky130_fd_pr__pfet_01v8[id])	current
	194	i(@m.x6.xbandgap_0.xdiff_pair_0.xp20x1_1.x4.msky130_fd_pr__pfet_01v8[ig])	current dims=0
	195	i(@m.x6.xbandgap_0.xdiff_pair_0.xp20x1_1.x4.msky130_fd_pr__pfet_01v8[is])	current dims=0
	196	i(@m.x6.xbandgap_0.xn20x1_0.x0.msky130_fd_pr__nfet_01v8[ib])	current dims=0
	197	i(@m.x6.xbandgap_0.xn20x1_0.x0.msky130_fd_pr__nfet_01v8[id])	current
	198	i(@m.x6.xbandgap_0.xn20x1_0.x0.msky130_fd_pr__nfet_01v8[ig])	current dims=0
	199	i(@m.x6.xbandgap_0.xn20x1_0.x0.msky130_fd_pr__nfet_01v8[is])	current dims=0
	200	i(@m.x6.xbandgap_0.xn20x1_0.x1.msky130_fd_pr__nfet_01v8[ib])	current dims=0
	201	i(@m.x6.xbandgap_0.xn20x1_0.x1.msky130_fd_pr__nfet_01v8[id])	current
	202	i(@m.x6.xbandgap_0.xn20x1_0.x1.msky130_fd_pr__nfet_01v8[ig])	current dims=0
	203	i(@m.x6.xbandgap_0.xn20x1_0.x1.msky130_fd_pr__nfet_01v8[is])	current dims=0
	204	i(@m.x6.xbandgap_0.xn20x1_0.x2.msky130_fd_pr__nfet_01v8[ib])	current dims=0
	205	i(@m.x6.xbandgap_0.xn20x1_0.x2.msky130_fd_pr__nfet_01v8[id])	current
	206	i(@m.x6.xbandgap_0.xn20x1_0.x2.msky130_fd_pr__nfet_01v8[ig])	current dims=0
	207	i(@m.x6.xbandgap_0.xn20x1_0.x2.msky130_fd_pr__nfet_01v8[is])	current dims=0
	208	i(@m.x6.xbandgap_0.xn20x1_0.x3.msky130_fd_pr__nfet_01v8[ib])	current dims=0
	209	i(@m.x6.xbandgap_0.xn20x1_0.x3.msky130_fd_pr__nfet_01v8[id])	current
	210	i(@m.x6.xbandgap_0.xn20x1_0.x3.msky130_fd_pr__nfet_01v8[ig])	current dims=0
	211	i(@m.x6.xbandgap_0.xn20x1_0.x3.msky130_fd_pr__nfet_01v8[is])	current dims=0
	212	i(@m.x6.xbandgap_0.xn20x1_0.x4.msky130_fd_pr__nfet_01v8[ib])	current dims=0
	213	i(@m.x6.xbandgap_0.xn20x1_0.x4.msky130_fd_pr__nfet_01v8[id])	current
	214	i(@m.x6.xbandgap_0.xn20x1_0.x4.msky130_fd_pr__nfet_01v8[ig])	current dims=0
	215	i(@m.x6.xbandgap_0.xn20x1_0.x4.msky130_fd_pr__nfet_01v8[is])	current dims=0
	216	i(@m.x6.xbandgap_0.xn20x1_1.x0.msky130_fd_pr__nfet_01v8[ib])	current dims=0
	217	i(@m.x6.xbandgap_0.xn20x1_1.x0.msky130_fd_pr__nfet_01v8[id])	current
	218	i(@m.x6.xbandgap_0.xn20x1_1.x0.msky130_fd_pr__nfet_01v8[ig])	current dims=0
	219	i(@m.x6.xbandgap_0.xn20x1_1.x0.msky130_fd_pr__nfet_01v8[is])	current dims=0
	220	i(@m.x6.xbandgap_0.xn20x1_1.x1.msky130_fd_pr__nfet_01v8[ib])	current dims=0
	221	i(@m.x6.xbandgap_0.xn20x1_1.x1.msky130_fd_pr__nfet_01v8[id])	current
	222	i(@m.x6.xbandgap_0.xn20x1_1.x1.msky130_fd_pr__nfet_01v8[ig])	current dims=0
	223	i(@m.x6.xbandgap_0.xn20x1_1.x1.msky130_fd_pr__nfet_01v8[is])	current dims=0
	224	i(@m.x6.xbandgap_0.xn20x1_1.x2.msky130_fd_pr__nfet_01v8[ib])	current dims=0
	225	i(@m.x6.xbandgap_0.xn20x1_1.x2.msky130_fd_pr__nfet_01v8[id])	current
	226	i(@m.x6.xbandgap_0.xn20x1_1.x2.msky130_fd_pr__nfet_01v8[ig])	current dims=0
	227	i(@m.x6.xbandgap_0.xn20x1_1.x2.msky130_fd_pr__nfet_01v8[is])	current dims=0
	228	i(@m.x6.xbandgap_0.xn20x1_1.x3.msky130_fd_pr__nfet_01v8[ib])	current dims=0
	229	i(@m.x6.xbandgap_0.xn20x1_1.x3.msky130_fd_pr__nfet_01v8[id])	current
	230	i(@m.x6.xbandgap_0.xn20x1_1.x3.msky130_fd_pr__nfet_01v8[ig])	current dims=0
	231	i(@m.x6.xbandgap_0.xn20x1_1.x3.msky130_fd_pr__nfet_01v8[is])	current dims=0
	232	i(@m.x6.xbandgap_0.xn20x1_1.x4.msky130_fd_pr__nfet_01v8[ib])	current dims=0
	233	i(@m.x6.xbandgap_0.xn20x1_1.x4.msky130_fd_pr__nfet_01v8[id])	current
	234	i(@m.x6.xbandgap_0.xn20x1_1.x4.msky130_fd_pr__nfet_01v8[ig])	current dims=0
	235	i(@m.x6.xbandgap_0.xn20x1_1.x4.msky130_fd_pr__nfet_01v8[is])	current dims=0
	236	i(@m.x6.xbandgap_0.xp20x05_0.x0.msky130_fd_pr__pfet_01v8[ib])	current dims=0
	237	i(@m.x6.xbandgap_0.xp20x05_0.x0.msky130_fd_pr__pfet_01v8[id])	current
	238	i(@m.x6.xbandgap_0.xp20x05_0.x0.msky130_fd_pr__pfet_01v8[ig])	current dims=0
	239	i(@m.x6.xbandgap_0.xp20x05_0.x0.msky130_fd_pr__pfet_01v8[is])	current dims=0
	240	i(@m.x6.xbandgap_0.xp20x05_0.x1.msky130_fd_pr__pfet_01v8[ib])	current dims=0
	241	i(@m.x6.xbandgap_0.xp20x05_0.x1.msky130_fd_pr__pfet_01v8[id])	current
	242	i(@m.x6.xbandgap_0.xp20x05_0.x1.msky130_fd_pr__pfet_01v8[ig])	current dims=0
	243	i(@m.x6.xbandgap_0.xp20x05_0.x1.msky130_fd_pr__pfet_01v8[is])	current dims=0
	244	i(@m.x6.xbandgap_0.xp20x05_0.x2.msky130_fd_pr__pfet_01v8[ib])	current dims=0
	245	i(@m.x6.xbandgap_0.xp20x05_0.x2.msky130_fd_pr__pfet_01v8[id])	current
	246	i(@m.x6.xbandgap_0.xp20x05_0.x2.msky130_fd_pr__pfet_01v8[ig])	current dims=0
	247	i(@m.x6.xbandgap_0.xp20x05_0.x2.msky130_fd_pr__pfet_01v8[is])	current dims=0
	248	i(@m.x6.xbandgap_0.xp20x05_0.x3.msky130_fd_pr__pfet_01v8[ib])	current dims=0
	249	i(@m.x6.xbandgap_0.xp20x05_0.x3.msky130_fd_pr__pfet_01v8[id])	current
	250	i(@m.x6.xbandgap_0.xp20x05_0.x3.msky130_fd_pr__pfet_01v8[ig])	current dims=0
	251	i(@m.x6.xbandgap_0.xp20x05_0.x3.msky130_fd_pr__pfet_01v8[is])	current dims=0
	252	i(@m.x6.xbandgap_0.xp20x05_0.x4.msky130_fd_pr__pfet_01v8[ib])	current dims=0
	253	i(@m.x6.xbandgap_0.xp20x05_0.x4.msky130_fd_pr__pfet_01v8[id])	current
	254	i(@m.x6.xbandgap_0.xp20x05_0.x4.msky130_fd_pr__pfet_01v8[ig])	current dims=0
	255	i(@m.x6.xbandgap_0.xp20x05_0.x4.msky130_fd_pr__pfet_01v8[is])	current dims=0
	256	i(@m.x6.xbandgap_0.xsky130_fd_pr__nfet_01v8_6eedfx_0.x0.msky130_fd_pr__nfet_01v8[ib])	current dims=0
	257	i(@m.x6.xbandgap_0.xsky130_fd_pr__nfet_01v8_6eedfx_0.x0.msky130_fd_pr__nfet_01v8[id])	current
	258	i(@m.x6.xbandgap_0.xsky130_fd_pr__nfet_01v8_6eedfx_0.x0.msky130_fd_pr__nfet_01v8[ig])	current dims=0
	259	i(@m.x6.xbandgap_0.xsky130_fd_pr__nfet_01v8_6eedfx_0.x0.msky130_fd_pr__nfet_01v8[is])	current dims=0
	260	i(@m.x6.xbandgap_0.xsky130_fd_pr__nfet_01v8_n7yw8t_0.x0.msky130_fd_pr__nfet_01v8[ib])	current dims=0
	261	i(@m.x6.xbandgap_0.xsky130_fd_pr__nfet_01v8_n7yw8t_0.x0.msky130_fd_pr__nfet_01v8[id])	current
	262	i(@m.x6.xbandgap_0.xsky130_fd_pr__nfet_01v8_n7yw8t_0.x0.msky130_fd_pr__nfet_01v8[ig])	current dims=0
	263	i(@m.x6.xbandgap_0.xsky130_fd_pr__nfet_01v8_n7yw8t_0.x0.msky130_fd_pr__nfet_01v8[is])	current dims=0
	264	i(@m.x6.xbandgap_0.xsky130_fd_pr__nfet_01v8_n7yw8t_1.x0.msky130_fd_pr__nfet_01v8[ib])	current dims=0
	265	i(@m.x6.xbandgap_0.xsky130_fd_pr__nfet_01v8_n7yw8t_1.x0.msky130_fd_pr__nfet_01v8[id])	current
	266	i(@m.x6.xbandgap_0.xsky130_fd_pr__nfet_01v8_n7yw8t_1.x0.msky130_fd_pr__nfet_01v8[ig])	current dims=0
	267	i(@m.x6.xbandgap_0.xsky130_fd_pr__nfet_01v8_n7yw8t_1.x0.msky130_fd_pr__nfet_01v8[is])	current dims=0
	268	i(@m.x6.xbandgap_0.xsky130_fd_pr__pfet_01v8_j24l55_0.x0.msky130_fd_pr__pfet_01v8[ib])	current dims=0
	269	i(@m.x6.xbandgap_0.xsky130_fd_pr__pfet_01v8_j24l55_0.x0.msky130_fd_pr__pfet_01v8[id])	current
	270	i(@m.x6.xbandgap_0.xsky130_fd_pr__pfet_01v8_j24l55_0.x0.msky130_fd_pr__pfet_01v8[ig])	current dims=0
	271	i(@m.x6.xbandgap_0.xsky130_fd_pr__pfet_01v8_j24l55_0.x0.msky130_fd_pr__pfet_01v8[is])	current dims=0
	272	i(@m.x6.xdemod_0.xdiff80_0.xp1_80x1_0.x0.msky130_fd_pr__pfet_01v8[ib])	current dims=0
	273	i(@m.x6.xdemod_0.xdiff80_0.xp1_80x1_0.x0.msky130_fd_pr__pfet_01v8[id])	current
	274	i(@m.x6.xdemod_0.xdiff80_0.xp1_80x1_0.x0.msky130_fd_pr__pfet_01v8[ig])	current dims=0
	275	i(@m.x6.xdemod_0.xdiff80_0.xp1_80x1_0.x0.msky130_fd_pr__pfet_01v8[is])	current dims=0
	276	i(@m.x6.xdemod_0.xdiff80_0.xp1_80x1_0.x1.msky130_fd_pr__pfet_01v8[ib])	current dims=0
	277	i(@m.x6.xdemod_0.xdiff80_0.xp1_80x1_0.x1.msky130_fd_pr__pfet_01v8[id])	current
	278	i(@m.x6.xdemod_0.xdiff80_0.xp1_80x1_0.x1.msky130_fd_pr__pfet_01v8[ig])	current dims=0
	279	i(@m.x6.xdemod_0.xdiff80_0.xp1_80x1_0.x1.msky130_fd_pr__pfet_01v8[is])	current dims=0
	280	i(@m.x6.xdemod_0.xdiff80_0.xp1_80x1_0.x2.msky130_fd_pr__pfet_01v8[ib])	current dims=0
	281	i(@m.x6.xdemod_0.xdiff80_0.xp1_80x1_0.x2.msky130_fd_pr__pfet_01v8[id])	current
	282	i(@m.x6.xdemod_0.xdiff80_0.xp1_80x1_0.x2.msky130_fd_pr__pfet_01v8[ig])	current dims=0
	283	i(@m.x6.xdemod_0.xdiff80_0.xp1_80x1_0.x2.msky130_fd_pr__pfet_01v8[is])	current dims=0
	284	i(@m.x6.xdemod_0.xdiff80_0.xp1_80x1_0.x3.msky130_fd_pr__pfet_01v8[ib])	current dims=0
	285	i(@m.x6.xdemod_0.xdiff80_0.xp1_80x1_0.x3.msky130_fd_pr__pfet_01v8[id])	current
	286	i(@m.x6.xdemod_0.xdiff80_0.xp1_80x1_0.x3.msky130_fd_pr__pfet_01v8[ig])	current dims=0
	287	i(@m.x6.xdemod_0.xdiff80_0.xp1_80x1_0.x3.msky130_fd_pr__pfet_01v8[is])	current dims=0
	288	i(@m.x6.xdemod_0.xdiff80_0.xp1_80x1_0.x4.msky130_fd_pr__pfet_01v8[ib])	current dims=0
	289	i(@m.x6.xdemod_0.xdiff80_0.xp1_80x1_0.x4.msky130_fd_pr__pfet_01v8[id])	current
	290	i(@m.x6.xdemod_0.xdiff80_0.xp1_80x1_0.x4.msky130_fd_pr__pfet_01v8[ig])	current dims=0
	291	i(@m.x6.xdemod_0.xdiff80_0.xp1_80x1_0.x4.msky130_fd_pr__pfet_01v8[is])	current dims=0
	292	i(@m.x6.xdemod_0.xdiff80_0.xp1_80x1_1.x0.msky130_fd_pr__pfet_01v8[ib])	current dims=0
	293	i(@m.x6.xdemod_0.xdiff80_0.xp1_80x1_1.x0.msky130_fd_pr__pfet_01v8[id])	current
	294	i(@m.x6.xdemod_0.xdiff80_0.xp1_80x1_1.x0.msky130_fd_pr__pfet_01v8[ig])	current dims=0
	295	i(@m.x6.xdemod_0.xdiff80_0.xp1_80x1_1.x0.msky130_fd_pr__pfet_01v8[is])	current dims=0
	296	i(@m.x6.xdemod_0.xdiff80_0.xp1_80x1_1.x1.msky130_fd_pr__pfet_01v8[ib])	current dims=0
	297	i(@m.x6.xdemod_0.xdiff80_0.xp1_80x1_1.x1.msky130_fd_pr__pfet_01v8[id])	current
	298	i(@m.x6.xdemod_0.xdiff80_0.xp1_80x1_1.x1.msky130_fd_pr__pfet_01v8[ig])	current dims=0
	299	i(@m.x6.xdemod_0.xdiff80_0.xp1_80x1_1.x1.msky130_fd_pr__pfet_01v8[is])	current dims=0
	300	i(@m.x6.xdemod_0.xdiff80_0.xp1_80x1_1.x2.msky130_fd_pr__pfet_01v8[ib])	current dims=0
	301	i(@m.x6.xdemod_0.xdiff80_0.xp1_80x1_1.x2.msky130_fd_pr__pfet_01v8[id])	current
	302	i(@m.x6.xdemod_0.xdiff80_0.xp1_80x1_1.x2.msky130_fd_pr__pfet_01v8[ig])	current dims=0
	303	i(@m.x6.xdemod_0.xdiff80_0.xp1_80x1_1.x2.msky130_fd_pr__pfet_01v8[is])	current dims=0
	304	i(@m.x6.xdemod_0.xdiff80_0.xp1_80x1_1.x3.msky130_fd_pr__pfet_01v8[ib])	current dims=0
	305	i(@m.x6.xdemod_0.xdiff80_0.xp1_80x1_1.x3.msky130_fd_pr__pfet_01v8[id])	current
	306	i(@m.x6.xdemod_0.xdiff80_0.xp1_80x1_1.x3.msky130_fd_pr__pfet_01v8[ig])	current dims=0
	307	i(@m.x6.xdemod_0.xdiff80_0.xp1_80x1_1.x3.msky130_fd_pr__pfet_01v8[is])	current dims=0
	308	i(@m.x6.xdemod_0.xdiff80_0.xp1_80x1_1.x4.msky130_fd_pr__pfet_01v8[ib])	current dims=0
	309	i(@m.x6.xdemod_0.xdiff80_0.xp1_80x1_1.x4.msky130_fd_pr__pfet_01v8[id])	current
	310	i(@m.x6.xdemod_0.xdiff80_0.xp1_80x1_1.x4.msky130_fd_pr__pfet_01v8[ig])	current dims=0
	311	i(@m.x6.xdemod_0.xdiff80_0.xp1_80x1_1.x4.msky130_fd_pr__pfet_01v8[is])	current dims=0
	312	i(@m.x6.xdemod_0.xn1x15_diff_pair_0.xn1x15_0.x0.msky130_fd_pr__nfet_01v8[ib])	current dims=0
	313	i(@m.x6.xdemod_0.xn1x15_diff_pair_0.xn1x15_0.x0.msky130_fd_pr__nfet_01v8[id])	current
	314	i(@m.x6.xdemod_0.xn1x15_diff_pair_0.xn1x15_0.x0.msky130_fd_pr__nfet_01v8[ig])	current dims=0
	315	i(@m.x6.xdemod_0.xn1x15_diff_pair_0.xn1x15_0.x0.msky130_fd_pr__nfet_01v8[is])	current dims=0
	316	i(@m.x6.xdemod_0.xn1x15_diff_pair_0.xn1x15_0.x1.msky130_fd_pr__nfet_01v8[ib])	current dims=0
	317	i(@m.x6.xdemod_0.xn1x15_diff_pair_0.xn1x15_0.x1.msky130_fd_pr__nfet_01v8[id])	current
	318	i(@m.x6.xdemod_0.xn1x15_diff_pair_0.xn1x15_0.x1.msky130_fd_pr__nfet_01v8[ig])	current dims=0
	319	i(@m.x6.xdemod_0.xn1x15_diff_pair_0.xn1x15_0.x1.msky130_fd_pr__nfet_01v8[is])	current dims=0
	320	i(@m.x6.xdemod_0.xn1x15_diff_pair_0.xn1x15_0.x2.msky130_fd_pr__nfet_01v8[ib])	current dims=0
	321	i(@m.x6.xdemod_0.xn1x15_diff_pair_0.xn1x15_0.x2.msky130_fd_pr__nfet_01v8[id])	current
	322	i(@m.x6.xdemod_0.xn1x15_diff_pair_0.xn1x15_0.x2.msky130_fd_pr__nfet_01v8[ig])	current dims=0
	323	i(@m.x6.xdemod_0.xn1x15_diff_pair_0.xn1x15_0.x2.msky130_fd_pr__nfet_01v8[is])	current dims=0